TITLE
qNEP water fixture
END
POSITION
    1 SYS   H          1     0.722923003     0.268725006     0.465958000
    1 SYS   H          2     0.601341996     0.560795994     0.499773998
    1 SYS   H          3     0.653790997     0.674133001     0.562727001
    1 SYS   H          4     0.732273000     0.859802997     0.046332703
    1 SYS   H          5     0.642344996     0.152515998     0.406086003
    1 SYS   H          6     0.475094999     0.822028997     0.506568000
    1 SYS   H          7     0.568044997     0.945969999     0.555086002
    1 SYS   H          8     0.565453996     0.877196999     0.275872997
    1 SYS   H          9     0.623401003     1.014000003     0.234564001
    1 SYS   H         10     0.307839996     0.280450999     0.384898998
    1 SYS   H         11     0.385356996     0.406592002     0.338233000
    1 SYS   H         12     0.702609996     0.205758998     0.048688701
    1 SYS   H         13     0.292858997     0.596439002     0.485718999
    1 SYS   H         14     0.126731997     0.798170000     0.400719998
    1 SYS   H         15     0.016574701     0.889752998     0.449827998
    1 SYS   H         16     0.148094002     0.557480000     0.093614999
    1 SYS   H         17     0.061664402     0.673833003     0.143686999
    1 SYS   H         18     0.102070998     0.202906004     0.382294003
    1 SYS   H         19     0.090605703     0.274767999     0.524324000
    1 SYS   H         20     0.395664997     0.728452002     0.325353003
    1 SYS   H         21     0.335616997     0.832567005     0.223316997
    1 SYS   H         22     0.017603903     0.118349996     0.240025002
    1 SYS   H         23     0.137963996     0.045450200     0.208821001
    1 SYS   H         24     0.402359003     0.491258005     0.551715998
    1 SYS   H         25     0.695872004     0.295322998     0.181319003
    1 SYS   H         26     0.777508996     0.863583994     0.180193000
    1 SYS   H         27     0.150882002     0.998111004     0.173940002
    1 SYS   H         28     0.006573407     1.122840005     0.599148000
    1 SYS   H         29     0.843536001     1.104970000     0.453773997
    1 SYS   H         30     0.119508000     0.563823999     0.350559003
    1 SYS   H         31     0.049127001     0.591405998     0.492271000
    1 SYS   H         32     0.456058999     0.011638003     0.337610997
    1 SYS   H         33     0.360815999     1.118770000     0.304909001
    1 SYS   H         34     0.200919002     0.013608695     0.012138600
    1 SYS   H         35     0.359946001     0.312530998     0.151722998
    1 SYS   H         36     0.447675997     0.240312006     0.039796701
    1 SYS   H         37     0.703845001     0.562037000     0.287153001
    1 SYS   H         38     0.248488002     0.146723003     0.026926598
    1 SYS   H         39     0.471781999     1.159609996     0.559959002
    1 SYS   H         40     0.714196000     0.522151001     0.143054002
    1 SYS   H         41     0.186799002     0.959027002     0.031878297
    1 SYS   H         42     0.615487003     1.193400005     0.612762997
    1 SYS   O         43     0.806311001     0.828329995     0.094904698
    1 SYS   O         44     0.684169999     0.607244998     0.499497001
    1 SYS   O         45     0.090396503     0.071995196     0.284435997
    1 SYS   O         46     0.129165003     0.605287003     0.442459003
    1 SYS   O         47     0.222421002     1.008460003     0.111528003
    1 SYS   O         48     0.399361003     0.820475002     0.302001999
    1 SYS   O         49     0.678307004     0.186498995     0.495304001
    1 SYS   O         50     0.439479002     1.144399996     0.359347998
    1 SYS   O         51     0.111766997     0.288102002     0.434467999
    1 SYS   O         52     0.643430998     0.528721006     0.214900001
    1 SYS   O         53     0.119794997     0.595665995     0.177333997
    1 SYS   O         54     0.164982997     0.100105999     0.021996398
    1 SYS   O         55     0.536828998     0.854938006     0.573862003
    1 SYS   O         56     0.091676899     0.887107997     0.395944997
    1 SYS   O         57     0.742514997     0.220287002     0.138899002
    1 SYS   O         58     0.366306998     0.290895001     0.049107401
    1 SYS   O         59     0.386230996     0.572917001     0.504854002
    1 SYS   O         60     0.519647004     1.184730000     0.019077000
    1 SYS   O         61     0.378745997     0.306790004     0.325968999
    1 SYS   O         62     0.638000001     0.938459995     0.292916998
    1 SYS   O         63     0.782632996     1.111400000     0.529616002
END
BOX
    0.851445650     1.227891300     0.617979810
END
