integrator = md
nsteps = 0
dt = 0.001
continuation = no
constraints = none
cutoff-scheme = Verlet
nstlist = 10
rlist = 0.3
coulombtype = PME
rcoulomb = 0.3
vdwtype = Cut-off
rvdw = 0.3
pbc = xyz
periodic-molecules = yes
nstcalcenergy = 1
nstenergy = 1
nstlog = 1
nstxout = 0
nstvout = 0
nstfout = 1
nstxout-compressed = 0
tcoupl = no
pcoupl = no
gen-vel = no
nnpot-active = yes
nnpot-modelfile = qnep.txt
nnpot-input-group = System
nnpot-embedding = mechanical
