[ moleculetype ]
SYS 1

[ atoms ]
1 H 1 SYS H1 1 0.0 1.008
2 H 1 SYS H2 2 0.0 1.008
3 H 1 SYS H3 3 0.0 1.008
4 H 1 SYS H4 4 0.0 1.008
5 H 1 SYS H5 5 0.0 1.008
6 H 1 SYS H6 6 0.0 1.008
7 H 1 SYS H7 7 0.0 1.008
8 H 1 SYS H8 8 0.0 1.008
9 H 1 SYS H9 9 0.0 1.008
10 H 1 SYS H10 10 0.0 1.008
11 H 1 SYS H11 11 0.0 1.008
12 H 1 SYS H12 12 0.0 1.008
13 H 1 SYS H13 13 0.0 1.008
14 H 1 SYS H14 14 0.0 1.008
15 H 1 SYS H15 15 0.0 1.008
16 H 1 SYS H16 16 0.0 1.008
17 H 1 SYS H17 17 0.0 1.008
18 H 1 SYS H18 18 0.0 1.008
19 H 1 SYS H19 19 0.0 1.008
20 H 1 SYS H20 20 0.0 1.008
21 H 1 SYS H21 21 0.0 1.008
22 H 1 SYS H22 22 0.0 1.008
23 H 1 SYS H23 23 0.0 1.008
24 H 1 SYS H24 24 0.0 1.008
25 H 1 SYS H25 25 0.0 1.008
26 H 1 SYS H26 26 0.0 1.008
27 H 1 SYS H27 27 0.0 1.008
28 H 1 SYS H28 28 0.0 1.008
29 H 1 SYS H29 29 0.0 1.008
30 H 1 SYS H30 30 0.0 1.008
31 H 1 SYS H31 31 0.0 1.008
32 H 1 SYS H32 32 0.0 1.008
33 H 1 SYS H33 33 0.0 1.008
34 H 1 SYS H34 34 0.0 1.008
35 H 1 SYS H35 35 0.0 1.008
36 H 1 SYS H36 36 0.0 1.008
37 H 1 SYS H37 37 0.0 1.008
38 H 1 SYS H38 38 0.0 1.008
39 H 1 SYS H39 39 0.0 1.008
40 H 1 SYS H40 40 0.0 1.008
41 H 1 SYS H41 41 0.0 1.008
42 H 1 SYS H42 42 0.0 1.008
43 O 1 SYS O43 43 0.0 15.9994
44 O 1 SYS O44 44 0.0 15.9994
45 O 1 SYS O45 45 0.0 15.9994
46 O 1 SYS O46 46 0.0 15.9994
47 O 1 SYS O47 47 0.0 15.9994
48 O 1 SYS O48 48 0.0 15.9994
49 O 1 SYS O49 49 0.0 15.9994
50 O 1 SYS O50 50 0.0 15.9994
51 O 1 SYS O51 51 0.0 15.9994
52 O 1 SYS O52 52 0.0 15.9994
53 O 1 SYS O53 53 0.0 15.9994
54 O 1 SYS O54 54 0.0 15.9994
55 O 1 SYS O55 55 0.0 15.9994
56 O 1 SYS O56 56 0.0 15.9994
57 O 1 SYS O57 57 0.0 15.9994
58 O 1 SYS O58 58 0.0 15.9994
59 O 1 SYS O59 59 0.0 15.9994
60 O 1 SYS O60 60 0.0 15.9994
61 O 1 SYS O61 61 0.0 15.9994
62 O 1 SYS O62 62 0.0 15.9994
63 O 1 SYS O63 63 0.0 15.9994
