[ moleculetype ]
SYS 1

[ atoms ]
1 H 1 SYS H 1 0.417 1.008
2 H 1 SYS H 2 0.417 1.008
3 H 1 SYS H 3 0.417 1.008
4 H 1 SYS H 4 0.417 1.008
5 H 1 SYS H 5 0.417 1.008
6 H 1 SYS H 6 0.417 1.008
7 H 1 SYS H 7 0.417 1.008
8 H 1 SYS H 8 0.417 1.008
9 H 1 SYS H 9 0.417 1.008
10 H 1 SYS H 10 0.417 1.008
11 H 1 SYS H 11 0.417 1.008
12 H 1 SYS H 12 0.417 1.008
13 H 1 SYS H 13 0.417 1.008
14 H 1 SYS H 14 0.417 1.008
15 H 1 SYS H 15 0.417 1.008
16 H 1 SYS H 16 0.417 1.008
17 H 1 SYS H 17 0.417 1.008
18 H 1 SYS H 18 0.417 1.008
19 H 1 SYS H 19 0.417 1.008
20 H 1 SYS H 20 0.417 1.008
21 H 1 SYS H 21 0.417 1.008
22 H 1 SYS H 22 0.417 1.008
23 H 1 SYS H 23 0.417 1.008
24 H 1 SYS H 24 0.417 1.008
25 H 1 SYS H 25 0.417 1.008
26 H 1 SYS H 26 0.417 1.008
27 H 1 SYS H 27 0.417 1.008
28 H 1 SYS H 28 0.417 1.008
29 H 1 SYS H 29 0.417 1.008
30 H 1 SYS H 30 0.417 1.008
31 H 1 SYS H 31 0.417 1.008
32 H 1 SYS H 32 0.417 1.008
33 H 1 SYS H 33 0.417 1.008
34 H 1 SYS H 34 0.417 1.008
35 H 1 SYS H 35 0.417 1.008
36 H 1 SYS H 36 0.417 1.008
37 H 1 SYS H 37 0.417 1.008
38 H 1 SYS H 38 0.417 1.008
39 H 1 SYS H 39 0.417 1.008
40 H 1 SYS H 40 0.417 1.008
41 H 1 SYS H 41 0.417 1.008
42 H 1 SYS H 42 0.417 1.008
43 O 1 SYS O 43 -0.834 15.9994
44 O 1 SYS O 44 -0.834 15.9994
45 O 1 SYS O 45 -0.834 15.9994
46 O 1 SYS O 46 -0.834 15.9994
47 O 1 SYS O 47 -0.834 15.9994
48 O 1 SYS O 48 -0.834 15.9994
49 O 1 SYS O 49 -0.834 15.9994
50 O 1 SYS O 50 -0.834 15.9994
51 O 1 SYS O 51 -0.834 15.9994
52 O 1 SYS O 52 -0.834 15.9994
53 O 1 SYS O 53 -0.834 15.9994
54 O 1 SYS O 54 -0.834 15.9994
55 O 1 SYS O 55 -0.834 15.9994
56 O 1 SYS O 56 -0.834 15.9994
57 O 1 SYS O 57 -0.834 15.9994
58 O 1 SYS O 58 -0.834 15.9994
59 O 1 SYS O 59 -0.834 15.9994
60 O 1 SYS O 60 -0.834 15.9994
61 O 1 SYS O 61 -0.834 15.9994
62 O 1 SYS O 62 -0.834 15.9994
63 O 1 SYS O 63 -0.834 15.9994
