generated by VMD, t= 0.000000
8010
    1SOL    OW     1   0.116   3.573   0.359
    1SOL    HW1    2   0.022   3.559   0.374
    1SOL    HW2    3   0.138   3.511   0.289
    2SOL    OW     4   0.387   1.307   5.995
    2SOL    HW1    5   0.474   1.345   6.010
    2SOL    HW2    6   0.328   1.361   6.047
    3SOL    OW     7   0.761   1.032   5.984
    3SOL    HW1    8   0.812   1.002   5.909
    3SOL    HW2    9   0.762   1.128   5.977
    4SOL    OW    10   0.166   0.950   0.956
    4SOL    HW1   11   0.150   1.030   0.905
    4SOL    HW2   12   0.210   0.981   1.035
    5SOL    OW    13   0.347   1.043   6.000
    5SOL    HW1   14   0.425   0.989   6.014
    5SOL    HW2   15   0.378   1.133   6.011
    6SOL    OW    16   0.791   0.774   0.818
    6SOL    HW1   17   0.842   0.694   0.816
    6SOL    HW2   18   0.830   0.825   0.889
    7SOL    OW    19   0.724   0.948   0.598
    7SOL    HW1   20   0.629   0.958   0.597
    7SOL    HW2   21   0.742   0.895   0.676
    8SOL    OW    22   0.999   1.397   0.218
    8SOL    HW1   23   1.040   1.328   0.270
    8SOL    HW2   24   0.942   1.443   0.280
    9SOL    OW    25   0.945   0.948   0.991
    9SOL    HW1   26   0.972   1.019   0.933
    9SOL    HW2   27   1.019   0.888   0.993
   10SOL    OW    28   3.559   0.817   1.050
   10SOL    HW1   29   3.562   0.797   1.143
   10SOL    HW2   30   3.633   0.875   1.034
   11SOL    OW    31   0.385   0.799   0.355
   11SOL    HW1   32   0.313   0.853   0.323
   11SOL    HW2   33   0.347   0.713   0.368
   12SOL    OW    34   0.353   0.851   0.795
   12SOL    HW1   35   0.282   0.885   0.850
   12SOL    HW2   36   0.425   0.835   0.855
   13SOL    OW    37   0.952   0.960   5.786
   13SOL    HW1   38   0.995   1.013   5.720
   13SOL    HW2   39   1.004   0.880   5.790
   14SOL    OW    40   1.188   0.779   0.119
   14SOL    HW1   41   1.107   0.818   0.152
   14SOL    HW2   42   1.257   0.839   0.147
   15SOL    OW    43   0.960   0.944   0.198
   15SOL    HW1   44   1.005   1.020   0.233
   15SOL    HW2   45   0.894   0.980   0.139
   16SOL    OW    46   3.378   0.581   0.506
   16SOL    HW1   47   3.328   0.659   0.484
   16SOL    HW2   48   3.376   0.577   0.602
   17SOL    OW    49   0.552   0.865   0.032
   17SOL    HW1   50   0.620   0.931   0.020
   17SOL    HW2   51   0.595   0.797   0.084
   18SOL    OW    52   0.552   0.734   0.965
   18SOL    HW1   53   0.572   0.766   1.052
   18SOL    HW2   54   0.631   0.752   0.914
   19SOL    OW    55   3.601   0.566   0.325
   19SOL    HW1   56   3.678   0.591   0.375
   19SOL    HW2   57   3.528   0.578   0.385
   20SOL    OW    58  -0.003   0.610   0.880
   20SOL    HW1   59  -0.001   0.696   0.923
   20SOL    HW2   60   0.079   0.606   0.830
   21SOL    OW    61   0.351   0.360   0.409
   21SOL    HW1   62   0.307   0.305   0.344
   21SOL    HW2   63   0.435   0.383   0.369
   22SOL    OW    64   0.259   0.607   0.740
   22SOL    HW1   65   0.304   0.690   0.756
   22SOL    HW2   66   0.309   0.542   0.790
   23SOL    OW    67   0.800   0.780   0.393
   23SOL    HW1   68   0.862   0.831   0.339
   23SOL    HW2   69   0.770   0.842   0.459
   24SOL    OW    70   0.944   0.541   0.789
   24SOL    HW1   71   0.954   0.552   0.694
   24SOL    HW2   72   1.033   0.549   0.823
   25SOL    OW    73   0.387   0.379   0.853
   25SOL    HW1   74   0.331   0.321   0.904
   25SOL    HW2   75   0.471   0.379   0.900
   26SOL    OW    76   0.204   0.971   0.240
   26SOL    HW1   77   0.141   0.906   0.210
   26SOL    HW2   78   0.258   0.991   0.163
   27SOL    OW    79   0.219   0.185   0.227
   27SOL    HW1   80   0.163   0.257   0.199
   27SOL    HW2   81   0.158   0.118   0.259
   28SOL    OW    82   0.232   0.194   0.980
   28SOL    HW1   83   0.168   0.248   1.026
   28SOL    HW2   84   0.279   0.148   1.049
   29SOL    OW    85   0.232   0.594   0.467
   29SOL    HW1   86   0.227   0.601   0.562
   29SOL    HW2   87   0.278   0.511   0.451
   30SOL    OW    88   0.984   0.162   5.782
   30SOL    HW1   89   1.057   0.223   5.794
   30SOL    HW2   90   0.930   0.203   5.715
   31SOL    OW    91   0.684   0.368   0.915
   31SOL    HW1   92   0.705   0.454   0.950
   31SOL    HW2   93   0.642   0.322   0.988
   32SOL    OW    94   0.404   0.122   1.211
   32SOL    HW1   95   0.336   0.164   1.264
   32SOL    HW2   96   0.482   0.175   1.226
   33SOL    OW    97   0.808   0.357   0.405
   33SOL    HW1   98   0.770   0.314   0.481
   33SOL    HW2   99   0.869   0.422   0.441
   34SOL    OW   100   0.565   0.400   0.272
   34SOL    HW1  101   0.569   0.495   0.256
   34SOL    HW2  102   0.642   0.382   0.325
   35SOL    OW   103   0.417   0.206   0.638
   35SOL    HW1  104   0.404   0.275   0.704
   35SOL    HW2  105   0.388   0.245   0.556
   36SOL    OW   106   0.969   0.575   0.516
   36SOL    HW1  107   0.925   0.657   0.496
   36SOL    HW2  108   1.046   0.574   0.458
   37SOL    OW   109   0.916   0.200   0.963
   37SOL    HW1  110   0.845   0.263   0.951
   37SOL    HW2  111   0.993   0.253   0.982
   38SOL    OW   112   0.611   0.676   0.240
   38SOL    HW1  113   0.698   0.695   0.276
   38SOL    HW2  114   0.552   0.736   0.287
   39SOL    OW   115   0.715   0.188   0.606
   39SOL    HW1  116   0.620   0.177   0.603
   39SOL    HW2  117   0.731   0.233   0.689
   40SOL    OW   118   0.059   0.399   1.064
   40SOL    HW1  119   0.034   0.422   1.153
   40SOL    HW2  120   0.023   0.469   1.010
   41SOL    OW   121   0.577   0.261   0.024
   41SOL    HW1  122   0.661   0.221   0.050
   41SOL    HW2  123   0.564   0.332   0.087
   42SOL    OW   124   0.124   3.587   0.828
   42SOL    HW1  125   0.166   3.659   0.875
   42SOL    HW2  126   0.185   3.565   0.757
   43SOL    OW   127   0.283   3.569   0.589
   43SOL    HW1  128   0.234   3.585   0.509
   43SOL    HW2  129   0.318   3.655   0.614
   44SOL    OW   130   0.850   3.557   0.589
   44SOL    HW1  131   0.791   3.633   0.582
   44SOL    HW2  132   0.913   3.582   0.657
   45SOL    OW   133   1.037   0.008   0.787
   45SOL    HW1  134   1.007   0.082   0.839
   45SOL    HW2  135   1.131   0.001   0.806
   46SOL    OW   136   0.851   0.115   0.036
   46SOL    HW1  137   0.890   0.150   0.115
   46SOL    HW2  138   0.904   0.149  -0.035
   47SOL    OW   139   0.133   3.590   1.574
   47SOL    HW1  140   0.040   3.613   1.567
   47SOL    HW2  141   0.141   3.504   1.533
   48SOL    OW   142   0.317   1.041   1.195
   48SOL    HW1  143   0.406   1.008   1.185
   48SOL    HW2  144   0.327   1.136   1.202
   49SOL    OW   145   0.825   0.982   1.247
   49SOL    HW1  146   0.802   1.074   1.261
   49SOL    HW2  147   0.880   0.983   1.169
   50SOL    OW   148   0.138   1.157   2.016
   50SOL    HW1  149   0.195   1.159   1.939
   50SOL    HW2  150   0.185   1.101   2.078
   51SOL    OW   151   0.169   0.957   1.429
   51SOL    HW1  152   0.227   0.906   1.486
   51SOL    HW2  153   0.225   0.985   1.357
   52SOL    OW   154   0.434   0.942   1.792
   52SOL    HW1  155   0.390   1.026   1.806
   52SOL    HW2  156   0.527   0.963   1.792
   53SOL    OW   157   0.706   0.984   1.779
   53SOL    HW1  158   0.729   0.915   1.715
   53SOL    HW2  159   0.767   1.055   1.759
   54SOL    OW   160   0.979   0.926   1.463
   54SOL    HW1  161   1.013   1.009   1.495
   54SOL    HW2  162   0.914   0.950   1.397
   55SOL    OW   163   0.951   0.963   2.197
   55SOL    HW1  164   0.991   1.036   2.150
   55SOL    HW2  165   1.023   0.902   2.214
   56SOL    OW   166   3.581   0.573   2.116
   56SOL    HW1  167   3.582   0.648   2.175
   56SOL    HW2  168   3.665   0.578   2.070
   57SOL    OW   169   0.189   0.577   1.702
   57SOL    HW1  170   0.191   0.560   1.796
   57SOL    HW2  171   0.237   0.503   1.663
   58SOL    OW   172   0.010   0.807   2.271
   58SOL    HW1  173   0.027   0.786   2.363
   58SOL    HW2  174   0.085   0.860   2.245
   59SOL    OW   175   0.574   0.894   1.198
   59SOL    HW1  176   0.565   0.835   1.273
   59SOL    HW2  177   0.663   0.930   1.206
   60SOL    OW   178   0.803   0.822   2.006
   60SOL    HW1  179   0.767   0.884   1.943
   60SOL    HW2  180   0.852   0.876   2.068
   61SOL    OW   181   0.778   0.803   1.605
   61SOL    HW1  182   0.809   0.715   1.626
   61SOL    HW2  183   0.846   0.839   1.548
   62SOL    OW   184   3.559   0.799   1.331
   62SOL    HW1  185   3.493   0.853   1.375
   62SOL    HW2  186   3.642   0.844   1.350
   63SOL    OW   187   0.345   0.788   1.583
   63SOL    HW1  188   0.297   0.720   1.629
   63SOL    HW2  189   0.385   0.840   1.653
   64SOL    OW   190   0.613   0.749   2.178
   64SOL    HW1  191   0.624   0.801   2.258
   64SOL    HW2  192   0.685   0.775   2.122
   65SOL    OW   193   3.567   0.595   1.528
   65SOL    HW1  194   3.574   0.668   1.466
   65SOL    HW2  195   3.652   0.593   1.572
   66SOL    OW   196   0.371   0.809   2.036
   66SOL    HW1  197   0.389   0.859   1.956
   66SOL    HW2  198   0.457   0.783   2.068
   67SOL    OW   199   0.345   0.381   1.583
   67SOL    HW1  200   0.383   0.325   1.650
   67SOL    HW2  201   0.418   0.403   1.525
   68SOL    OW   202   0.225   0.971   2.200
   68SOL    HW1  203   0.274   1.000   2.276
   68SOL    HW2  204   0.281   0.905   2.159
   69SOL    OW   205   1.164   0.573   1.512
   69SOL    HW1  206   1.154   0.661   1.475
   69SOL    HW2  207   1.245   0.578   1.564
   70SOL    OW   208   0.934   0.591   1.914
   70SOL    HW1  209   0.901   0.678   1.937
   70SOL    HW2  210   1.004   0.574   1.977
   71SOL    OW   211   0.592   0.474   2.171
   71SOL    HW1  212   0.595   0.568   2.189
   71SOL    HW2  213   0.591   0.433   2.257
   72SOL    OW   214   0.581   0.731   1.423
   72SOL    HW1  215   0.492   0.758   1.446
   72SOL    HW2  216   0.630   0.738   1.505
   73SOL    OW   217   0.011   0.380   1.337
   73SOL    HW1  218   0.013   0.467   1.376
   73SOL    HW2  219   0.097   0.343   1.356
   74SOL    OW   220   0.218   0.586   1.978
   74SOL    HW1  221   0.271   0.511   2.003
   74SOL    HW2  222   0.271   0.662   2.003
   75SOL    OW   223   0.431   0.208   1.813
   75SOL    HW1  224   0.408   0.273   1.879
   75SOL    HW2  225   0.526   0.217   1.804
   76SOL    OW   226   0.904   0.574   1.644
   76SOL    HW1  227   0.912   0.583   1.739
   76SOL    HW2  228   0.993   0.586   1.611
   77SOL    OW   229   0.773   0.354   1.539
   77SOL    HW1  230   0.751   0.300   1.615
   77SOL    HW2  231   0.822   0.428   1.576
   78SOL    OW   232   0.209   0.182   2.174
   78SOL    HW1  233   0.127   0.222   2.203
   78SOL    HW2  234   0.265   0.183   2.252
   79SOL    OW   235   0.221   0.224   1.384
   79SOL    HW1  236   0.183   0.145   1.423
   79SOL    HW2  237   0.258   0.272   1.459
   80SOL    OW   238   0.612   0.302   1.176
   80SOL    HW1  239   0.606   0.356   1.255
   80SOL    HW2  240   0.691   0.249   1.188
   81SOL    OW   241   0.364   0.369   2.016
   81SOL    HW1  242   0.307   0.310   2.065
   81SOL    HW2  243   0.423   0.405   2.082
   82SOL    OW   244   0.966   0.187   1.422
   82SOL    HW1  245   0.910   0.243   1.476
   82SOL    HW2  246   1.042   0.242   1.402
   83SOL    OW   247   0.961   0.232   2.188
   83SOL    HW1  248   0.933   0.301   2.128
   83SOL    HW2  249   1.052   0.255   2.210
   84SOL    OW   250   0.556   0.444   1.410
   84SOL    HW1  251   0.632   0.407   1.454
   84SOL    HW2  252   0.570   0.539   1.415
   85SOL    OW   253   0.799   0.389   1.999
   85SOL    HW1  254   0.845   0.464   1.961
   85SOL    HW2  255   0.737   0.429   2.061
   86SOL    OW   256   3.584   0.320   2.248
   86SOL    HW1  257   3.581   0.338   2.342
   86SOL    HW2  258   3.562   0.403   2.207
   87SOL    OW   259   0.794   0.093   1.186
   87SOL    HW1  260   0.852   0.111   1.260
   87SOL    HW2  261   0.847   0.113   1.109
   88SOL    OW   262   0.130   3.538   2.034
   88SOL    HW1  263   0.134   3.626   2.071
   88SOL    HW2  264   0.181   3.542   1.953
   89SOL    OW   265   0.293   3.570   1.794
   89SOL    HW1  266   0.241   3.591   1.716
   89SOL    HW2  267   0.345   3.649   1.811
   90SOL    OW   268   0.704   0.229   1.771
   90SOL    HW1  269   0.726   0.286   1.845
   90SOL    HW2  270   0.752   0.148   1.787
   91SOL    OW   271   1.008   3.595   2.006
   91SOL    HW1  272   0.979   3.671   2.057
   91SOL    HW2  273   1.102   3.606   1.997
   92SOL    OW   274   0.838   3.593   1.775
   92SOL    HW1  275   0.890   3.589   1.856
   92SOL    HW2  276   0.903   3.587   1.705
   93SOL    OW   277   0.118   3.604   2.736
   93SOL    HW1  278   0.029   3.584   2.765
   93SOL    HW2  279   0.148   3.523   2.694
   94SOL    OW   280   0.368   1.046   2.423
   94SOL    HW1  281   0.448   0.994   2.420
   94SOL    HW2  282   0.397   1.136   2.407
   95SOL    OW   283   0.827   1.073   2.429
   95SOL    HW1  284   0.802   1.165   2.424
   95SOL    HW2  285   0.858   1.051   2.341
   96SOL    OW   286   0.227   0.960   3.387
   96SOL    HW1  287   0.204   1.036   3.334
   96SOL    HW2  288   0.261   0.995   3.469
   97SOL    OW   289   0.232   0.940   2.644
   97SOL    HW1  290   0.298   0.888   2.690
   97SOL    HW2  291   0.280   0.982   2.572
   98SOL    OW   292   0.493   0.945   2.967
   98SOL    HW1  293   0.465   1.035   2.954
   98SOL    HW2  294   0.473   0.926   3.058
   99SOL    OW   295   0.775   0.894   2.988
   99SOL    HW1  296   0.680   0.904   2.985
   99SOL    HW2  297   0.808   0.984   2.992
  100SOL    OW   298   0.973   0.952   2.630
  100SOL    HW1  299   0.915   0.889   2.674
  100SOL    HW2  300   0.923   0.980   2.553
  101SOL    OW   301   0.991   0.988   3.358
  101SOL    HW1  302   1.036   1.054   3.305
  101SOL    HW2  303   1.061   0.930   3.389
  102SOL    OW   304   3.595   0.839   3.445
  102SOL    HW1  305   3.589   0.826   3.540
  102SOL    HW2  306   3.681   0.880   3.433
  103SOL    OW   307   0.405   0.776   2.764
  103SOL    HW1  308   0.426   0.832   2.839
  103SOL    HW2  309   0.358   0.702   2.801
  104SOL    OW   310   0.431   0.826   3.214
  104SOL    HW1  311   0.371   0.873   3.272
  104SOL    HW2  312   0.486   0.774   3.274
  105SOL    OW   313   0.614   0.902   2.397
  105SOL    HW1  314   0.615   0.833   2.463
  105SOL    HW2  315   0.691   0.956   2.417
  106SOL    OW   316   0.941   0.575   3.135
  106SOL    HW1  317   0.886   0.638   3.182
  106SOL    HW2  318   1.021   0.570   3.187
  107SOL    OW   319   0.821   0.748   2.747
  107SOL    HW1  320   0.811   0.794   2.830
  107SOL    HW2  321   0.877   0.672   2.768
  108SOL    OW   322   0.025   0.815   2.539
  108SOL    HW1  323  -0.057   0.861   2.558
  108SOL    HW2  324   0.093   0.867   2.582
  109SOL    OW   325   0.598   0.706   2.600
  109SOL    HW1  326   0.520   0.731   2.648
  109SOL    HW2  327   0.669   0.714   2.664
  110SOL    OW   328   0.807   0.801   3.261
  110SOL    HW1  329   0.792   0.841   3.175
  110SOL    HW2  330   0.867   0.861   3.305
  111SOL    OW   331   0.004   0.573   2.672
  111SOL    HW1  332   0.030   0.646   2.615
  111SOL    HW2  333   0.080   0.559   2.728
  112SOL    OW   334   0.024   0.571   3.308
  112SOL    HW1  335   0.029   0.661   3.343
  112SOL    HW2  336   0.083   0.571   3.233
  113SOL    OW   337   0.234   0.562   2.844
  113SOL    HW1  338   0.212   0.580   2.935
  113SOL    HW2  339   0.290   0.485   2.847
  114SOL    OW   340   0.254   0.624   3.118
  114SOL    HW1  341   0.295   0.705   3.148
  114SOL    HW2  342   0.310   0.555   3.153
  115SOL    OW   343   0.950   0.531   2.853
  115SOL    HW1  344   0.949   0.543   2.948
  115SOL    HW2  345   1.042   0.539   2.829
  116SOL    OW   346   1.185   0.569   3.294
  116SOL    HW1  347   1.184   0.643   3.354
  116SOL    HW2  348   1.261   0.585   3.238
  117SOL    OW   349   0.584   0.405   3.361
  117SOL    HW1  350   0.604   0.496   3.384
  117SOL    HW2  351   0.577   0.361   3.445
  118SOL    OW   352   0.569   0.434   2.651
  118SOL    HW1  353   0.569   0.528   2.631
  118SOL    HW2  354   0.660   0.416   2.676
  119SOL    OW   355   3.588   0.354   2.517
  119SOL    HW1  356   3.579   0.436   2.566
  119SOL    HW2  357   3.667   0.314   2.552
  120SOL    OW   358   0.354   0.384   3.210
  120SOL    HW1  359   0.312   0.320   3.268
  120SOL    HW2  360   0.434   0.409   3.257
  121SOL    OW   361   0.386   0.325   2.825
  121SOL    HW1  362   0.454   0.353   2.763
  121SOL    HW2  363   0.434   0.284   2.897
  122SOL    OW   364   0.798   0.334   2.739
  122SOL    HW1  365   0.775   0.272   2.808
  122SOL    HW2  366   0.845   0.405   2.784
  123SOL    OW   367   0.817   0.341   3.228
  123SOL    HW1  368   0.740   0.369   3.278
  123SOL    HW2  369   0.850   0.421   3.188
  124SOL    OW   370   0.221   0.204   3.378
  124SOL    HW1  371   0.149   0.256   3.411
  124SOL    HW2  372   0.258   0.161   3.455
  125SOL    OW   373   0.218   0.218   2.618
  125SOL    HW1  374   0.172   0.141   2.653
  125SOL    HW2  375   0.266   0.253   2.694
  126SOL    OW   376   0.348   0.127   2.399
  126SOL    HW1  377   0.298   0.152   2.476
  126SOL    HW2  378   0.428   0.178   2.405
  127SOL    OW   379   0.760   0.169   2.993
  127SOL    HW1  380   0.667   0.154   3.006
  127SOL    HW2  381   0.790   0.209   3.075
  128SOL    OW   382   0.965   0.182   2.594
  128SOL    HW1  383   0.911   0.238   2.650
  128SOL    HW2  384   1.041   0.236   2.573
  129SOL    OW   385   0.789   0.101   3.627
  129SOL    HW1  386   0.846   0.114   3.551
  129SOL    HW2  387   0.844   0.127   3.701
  130SOL    OW   388   0.567   0.300   2.420
  130SOL    HW1  389   0.569   0.358   2.496
  130SOL    HW2  390   0.645   0.245   2.430
  131SOL    OW   391   0.954   0.155   3.399
  131SOL    HW1  392   1.019   0.222   3.423
  131SOL    HW2  393   0.901   0.198   3.332
  132SOL    OW   394   3.594   0.325   3.448
  132SOL    HW1  395   3.597   0.346   3.541
  132SOL    HW2  396   3.621   0.406   3.404
  133SOL    OW   397   0.784   0.136   2.398
  133SOL    HW1  398   0.854   0.129   2.463
  133SOL    HW2  399   0.826   0.174   2.321
  134SOL    OW   400   0.249   3.593   3.003
  134SOL    HW1  401   0.183   3.572   3.070
  134SOL    HW2  402   0.198   3.606   2.923
  135SOL    OW   403   0.470   0.174   3.042
  135SOL    HW1  404   0.457   0.247   3.103
  135SOL    HW2  405   0.385   0.131   3.037
  136SOL    OW   406   0.940   3.560   2.962
  136SOL    HW1  407   0.890   3.642   2.962
  136SOL    HW2  408   0.994   3.565   3.041
  137SOL    OW   409   1.080   3.555   3.221
  137SOL    HW1  410   1.049   3.636   3.262
  137SOL    HW2  411   1.175   3.566   3.215
  138SOL    OW   412   1.104   0.006   2.742
  138SOL    HW1  413   1.055  -0.011   2.823
  138SOL    HW2  414   1.052   0.070   2.695
  139SOL    OW   415   0.124   3.572   3.959
  139SOL    HW1  416   0.028   3.568   3.966
  139SOL    HW2  417   0.147   3.498   3.903
  140SOL    OW   418   0.342   1.055   3.629
  140SOL    HW1  419   0.356   1.149   3.642
  140SOL    HW2  420   0.431   1.019   3.621
  141SOL    OW   421   0.825   1.046   3.576
  141SOL    HW1  422   0.799   1.138   3.582
  141SOL    HW2  423   0.880   1.041   3.498
  142SOL    OW   424   0.206   0.977   4.563
  142SOL    HW1  425   0.130   0.925   4.588
  142SOL    HW2  426   0.255   0.989   4.645
  143SOL    OW   427   0.177   0.940   3.804
  143SOL    HW1  428   0.243   0.898   3.860
  143SOL    HW2  429   0.227   0.983   3.735
  144SOL    OW   430   0.440   0.982   4.180
  144SOL    HW1  431   0.391   0.926   4.120
  144SOL    HW2  432   0.425   0.943   4.266
  145SOL    OW   433   0.744   0.960   4.200
  145SOL    HW1  434   0.650   0.978   4.199
  145SOL    HW2  435   0.762   0.922   4.114
  146SOL    OW   436   0.964   0.948   3.812
  146SOL    HW1  437   0.979   1.027   3.864
  146SOL    HW2  438   0.929   0.980   3.729
  147SOL    OW   439   0.917   1.006   4.571
  147SOL    HW1  440   0.939   1.079   4.514
  147SOL    HW2  441   1.001   0.969   4.598
  148SOL    OW   442   3.585   0.833   4.644
  148SOL    HW1  443   3.573   0.822   4.739
  148SOL    HW2  444   3.509   0.884   4.616
  149SOL    OW   445   0.349   0.823   3.971
  149SOL    HW1  446   0.315   0.734   3.985
  149SOL    HW2  447   0.424   0.811   3.913
  150SOL    OW   448   0.350   0.827   4.390
  150SOL    HW1  449   0.289   0.881   4.440
  150SOL    HW2  450   0.420   0.807   4.451
  151SOL    OW   451   0.570   0.910   3.601
  151SOL    HW1  452   0.580   0.873   3.688
  151SOL    HW2  453   0.652   0.957   3.585
  152SOL    OW   454   0.805   0.762   4.401
  152SOL    HW1  455   0.763   0.825   4.343
  152SOL    HW2  456   0.846   0.816   4.469
  153SOL    OW   457   0.788   0.805   3.988
  153SOL    HW1  458   0.846   0.739   4.026
  153SOL    HW2  459   0.839   0.845   3.917
  154SOL    OW   460   3.557   0.783   3.735
  154SOL    HW1  461   3.470   0.815   3.760
  154SOL    HW2  462   3.618   0.845   3.774
  155SOL    OW   463   0.580   0.735   3.836
  155SOL    HW1  464   0.648   0.748   3.903
  155SOL    HW2  465   0.565   0.641   3.836
  156SOL    OW   466   0.551   0.731   4.556
  156SOL    HW1  467   0.572   0.780   4.636
  156SOL    HW2  468   0.631   0.738   4.503
  157SOL    OW   469   3.592   0.537   3.857
  157SOL    HW1  470   3.584   0.621   3.811
  157SOL    HW2  471   3.539   0.548   3.936
  158SOL    OW   472   3.599   0.574   4.512
  158SOL    HW1  473   3.591   0.653   4.566
  158SOL    HW2  474   3.666   0.596   4.447
  159SOL    OW   475   0.235   0.577   4.017
  159SOL    HW1  476   0.222   0.588   4.111
  159SOL    HW2  477   0.147   0.568   3.982
  160SOL    OW   478   0.194   0.602   4.331
  160SOL    HW1  479   0.241   0.684   4.345
  160SOL    HW2  480   0.253   0.535   4.365
  161SOL    OW   481   0.942   0.590   4.061
  161SOL    HW1  482   0.947   0.589   4.157
  161SOL    HW2  483   1.033   0.584   4.033
  162SOL    OW   484   0.976   0.574   4.329
  162SOL    HW1  485   0.915   0.640   4.363
  162SOL    HW2  486   1.054   0.584   4.384
  163SOL    OW   487   0.606   0.450   4.566
  163SOL    HW1  488   0.560   0.529   4.596
  163SOL    HW2  489   0.607   0.392   4.642
  164SOL    OW   490   0.551   0.441   3.824
  164SOL    HW1  491   0.624   0.419   3.882
  164SOL    HW2  492   0.474   0.402   3.866
  165SOL    OW   493   3.582   0.305   3.722
  165SOL    HW1  494   3.605   0.380   3.777
  165SOL    HW2  495   3.659   0.247   3.728
  166SOL    OW   496   0.350   0.387   4.399
  166SOL    HW1  497   0.312   0.315   4.449
  166SOL    HW2  498   0.426   0.414   4.450
  167SOL    OW   499   0.338   0.340   3.941
  167SOL    HW1  500   0.390   0.306   4.014
  167SOL    HW2  501   0.301   0.422   3.974
  168SOL    OW   502   0.785   0.364   3.957
  168SOL    HW1  503   0.829   0.448   3.971
  168SOL    HW2  504   0.771   0.330   4.045
  169SOL    OW   505   0.827   0.359   4.418
  169SOL    HW1  506   0.754   0.406   4.457
  169SOL    HW2  507   0.879   0.427   4.375
  170SOL    OW   508   0.230   0.203   4.566
  170SOL    HW1  509   0.165   0.264   4.602
  170SOL    HW2  510   0.296   0.194   4.635
  171SOL    OW   511   0.211   0.161   3.767
  171SOL    HW1  512   0.171   0.098   3.827
  171SOL    HW2  513   0.251   0.226   3.824
  172SOL    OW   514   0.372   0.076   3.567
  172SOL    HW1  515   0.324   0.100   3.647
  172SOL    HW2  516   0.444   0.139   3.563
  173SOL    OW   517   0.410   0.227   4.172
  173SOL    HW1  518   0.385   0.266   4.256
  173SOL    HW2  519   0.499   0.197   4.185
  174SOL    OW   520   1.046   3.584   3.999
  174SOL    HW1  521   1.022   3.645   3.929
  174SOL    HW2  522   1.080   3.507   3.954
  175SOL    OW   523   0.981   0.215   4.581
  175SOL    HW1  524   0.934   0.279   4.527
  175SOL    HW2  525   1.063   0.259   4.604
  176SOL    OW   526   0.594   0.687   3.411
  176SOL    HW1  527   0.677   0.696   3.362
  176SOL    HW2  528   0.595   0.760   3.473
  177SOL    OW   529   0.714   0.235   4.202
  177SOL    HW1  530   0.764   0.273   4.275
  177SOL    HW2  531   0.748   0.146   4.194
  178SOL    OW   532   0.039   0.359   4.661
  178SOL    HW1  533   0.011   0.376   4.751
  178SOL    HW2  534   0.033   0.444   4.617
  179SOL    OW   535   0.571   0.286   3.597
  179SOL    HW1  536   0.555   0.342   3.673
  179SOL    HW2  537   0.653   0.242   3.616
  180SOL    OW   538   0.054   3.596   4.470
  180SOL    HW1  539   0.102   3.668   4.514
  180SOL    HW2  540   0.078   3.604   4.378
  181SOL    OW   541   0.238   0.008   4.204
  181SOL    HW1  542   0.197  -0.002   4.117
  181SOL    HW2  543   0.291   0.086   4.197
  182SOL    OW   544   0.843   3.603   4.214
  182SOL    HW1  545   0.899   3.601   4.137
  182SOL    HW2  546   0.903   3.594   4.288
  183SOL    OW   547   1.028   0.002   4.442
  183SOL    HW1  548   1.023   0.089   4.483
  183SOL    HW2  549   1.122  -0.014   4.432
  184SOL    OW   550   1.324   0.023   3.992
  184SOL    HW1  551   1.338  -0.054   3.937
  184SOL    HW2  552   1.230   0.020   4.013
  185SOL    OW   553   0.120   3.590   5.177
  185SOL    HW1  554   0.028   3.569   5.160
  185SOL    HW2  555   0.168   3.510   5.154
  186SOL    OW   556   0.370   1.028   4.775
  186SOL    HW1  557   0.383   1.122   4.786
  186SOL    HW2  558   0.454   0.988   4.795
  187SOL    OW   559   0.800   1.094   4.822
  187SOL    HW1  560   0.789   1.189   4.821
  187SOL    HW2  561   0.859   1.075   4.749
  188SOL    OW   562   0.229   0.963   5.772
  188SOL    HW1  563   0.282   1.003   5.840
  188SOL    HW2  564   0.188   1.037   5.727
  189SOL    OW   565   0.198   0.971   4.995
  189SOL    HW1  566   0.269   0.923   5.038
  189SOL    HW2  567   0.236   1.000   4.912
  190SOL    OW   568   0.423   0.917   5.391
  190SOL    HW1  569   0.365   0.991   5.410
  190SOL    HW2  570   0.414   0.859   5.466
  191SOL    OW   571   0.689   0.939   5.433
  191SOL    HW1  572   0.603   0.962   5.398
  191SOL    HW2  573   0.742   1.018   5.420
  192SOL    OW   574   0.906   0.987   5.039
  192SOL    HW1  575   0.954   1.057   5.084
  192SOL    HW2  576   0.851   1.033   4.976
  193SOL    OW   577   0.904   0.549   5.547
  193SOL    HW1  578   0.880   0.635   5.583
  193SOL    HW2  579   0.991   0.532   5.582
  194SOL    OW   580  -0.001   0.816   5.844
  194SOL    HW1  581   0.029   0.763   5.918
  194SOL    HW2  582   0.078   0.861   5.814
  195SOL    OW   583   0.377   0.810   5.134
  195SOL    HW1  584   0.405   0.847   5.218
  195SOL    HW2  585   0.288   0.779   5.150
  196SOL    OW   586   0.358   0.783   5.612
  196SOL    HW1  587   0.306   0.850   5.656
  196SOL    HW2  588   0.419   0.751   5.679
  197SOL    OW   589   0.619   0.881   4.772
  197SOL    HW1  590   0.635   0.839   4.856
  197SOL    HW2  591   0.679   0.956   4.771
  198SOL    OW   592   0.781   0.305   5.628
  198SOL    HW1  593   0.703   0.328   5.679
  198SOL    HW2  594   0.814   0.389   5.596
  199SOL    OW   595   0.803   0.809   5.209
  199SOL    HW1  596   0.846   0.874   5.153
  199SOL    HW2  597   0.781   0.858   5.289
  200SOL    OW   598   3.576   0.806   4.914
  200SOL    HW1  599   3.571   0.722   4.961
  200SOL    HW2  600   3.664   0.838   4.932
  201SOL    OW   601   0.628   0.738   5.004
  201SOL    HW1  602   0.539   0.754   5.035
  201SOL    HW2  603   0.683   0.761   5.079
  202SOL    OW   604   0.561   0.712   5.809
  202SOL    HW1  605   0.631   0.751   5.756
  202SOL    HW2  606   0.562   0.762   5.891
  203SOL    OW   607   3.549   0.552   5.061
  203SOL    HW1  608   3.467   0.565   5.109
  203SOL    HW2  609   3.618   0.575   5.123
  204SOL    OW   610   3.595   0.599   5.664
  204SOL    HW1  611   3.593   0.681   5.713
  204SOL    HW2  612   3.667   0.610   5.601
  205SOL    OW   613   0.164   0.605   5.213
  205SOL    HW1  614   0.151   0.613   5.307
  205SOL    HW2  615   0.244   0.553   5.204
  206SOL    OW   616   0.201   0.606   5.483
  206SOL    HW1  617   0.256   0.675   5.521
  206SOL    HW2  618   0.257   0.529   5.480
  207SOL    OW   619   0.912   0.554   5.254
  207SOL    HW1  620   0.921   0.524   5.344
  207SOL    HW2  621   0.869   0.640   5.262
  208SOL    OW   622   0.760   0.339   5.170
  208SOL    HW1  623   0.812   0.274   5.122
  208SOL    HW2  624   0.821   0.411   5.186
  209SOL    OW   625   0.548   0.421   5.762
  209SOL    HW1  626   0.571   0.513   5.776
  209SOL    HW2  627   0.547   0.382   5.849
  210SOL    OW   628   0.332   0.392   5.170
  210SOL    HW1  629   0.400   0.421   5.109
  210SOL    HW2  630   0.380   0.341   5.235
  211SOL    OW   631   3.549   0.307   4.900
  211SOL    HW1  632   3.630   0.267   4.934
  211SOL    HW2  633   3.535   0.383   4.956
  212SOL    OW   634   0.360   0.396   5.557
  212SOL    HW1  635   0.290   0.371   5.617
  212SOL    HW2  636   0.435   0.413   5.614
  213SOL    OW   637   0.174   0.212   4.999
  213SOL    HW1  638   0.144   0.134   5.046
  213SOL    HW2  639   0.226   0.260   5.064
  214SOL    OW   640   0.569   0.455   5.018
  214SOL    HW1  641   0.637   0.414   5.073
  214SOL    HW2  642   0.583   0.549   5.030
  215SOL    OW   643   1.185   0.326   5.830
  215SOL    HW1  644   1.182   0.343   5.924
  215SOL    HW2  645   1.190   0.412   5.789
  216SOL    OW   646   0.358   0.119   0.008
  216SOL    HW1  647   0.441   0.165   0.022
  216SOL    HW2  648   0.312   0.127   0.091
  217SOL    OW   649   2.775   0.350   5.087
  217SOL    HW1  650   2.743   0.434   5.119
  217SOL    HW2  651   2.790   0.298   5.166
  218SOL    OW   652   0.355   0.118   4.792
  218SOL    HW1  653   0.302   0.146   4.867
  218SOL    HW2  654   0.438   0.163   4.804
  219SOL    OW   655   0.450   0.201   5.364
  219SOL    HW1  656   0.425   0.262   5.433
  219SOL    HW2  657   0.546   0.203   5.363
  220SOL    OW   658   0.945   0.204   5.024
  220SOL    HW1  659   1.010   0.271   5.003
  220SOL    HW2  660   0.996   0.131   5.058
  221SOL    OW   661   0.993   0.201   0.251
  221SOL    HW1  662   1.051   0.268   0.215
  221SOL    HW2  663   0.927   0.250   0.300
  222SOL    OW   664   0.586   0.271   4.790
  222SOL    HW1  665   0.592   0.330   4.865
  222SOL    HW2  666   0.675   0.237   4.780
  223SOL    OW   667   0.716   0.186   5.404
  223SOL    HW1  668   0.743   0.243   5.476
  223SOL    HW2  669   0.730   0.238   5.325
  224SOL    OW   670   0.208   0.234   5.756
  224SOL    HW1  671   0.255   0.200   5.832
  224SOL    HW2  672   0.133   0.281   5.792
  225SOL    OW   673   0.823   0.141   4.782
  225SOL    HW1  674   0.884   0.159   4.711
  225SOL    HW2  675   0.874   0.155   4.862
  226SOL    OW   676   0.110   0.005   5.669
  226SOL    HW1  677   0.145   0.086   5.707
  226SOL    HW2  678   0.141   0.007   5.578
  227SOL    OW   679   0.258  -0.005   5.415
  227SOL    HW1  680   0.190   0.022   5.353
  227SOL    HW2  681   0.322   0.066   5.413
  228SOL    OW   682   0.884   3.582   5.378
  228SOL    HW1  683   0.820   3.654   5.388
  228SOL    HW2  684   0.936   3.586   5.458
  229SOL    OW   685   0.967   3.366   5.797
  229SOL    HW1  686   0.993   3.429   5.729
  229SOL    HW2  687   1.050   3.327   5.826
  230SOL    OW   688   1.046   3.580   5.150
  230SOL    HW1  689   0.987   3.580   5.226
  230SOL    HW2  690   1.017   3.505   5.098
  231SOL    OW   691   0.169   1.211   0.341
  231SOL    HW1  692   0.075   1.213   0.362
  231SOL    HW2  693   0.183   1.122   0.309
  232SOL    OW   694   0.364   2.225   5.975
  232SOL    HW1  695   0.391   2.316   5.981
  232SOL    HW2  696   0.446   2.176   5.969
  233SOL    OW   697   0.782   2.249   0.020
  233SOL    HW1  698   0.811   2.340   0.017
  233SOL    HW2  699   0.813   2.212  -0.062
  234SOL    OW   700   0.203   2.134   0.954
  234SOL    HW1  701   0.251   2.175   1.026
  234SOL    HW2  702   0.176   2.207   0.899
  235SOL    OW   703   0.213   2.175   0.193
  235SOL    HW1  704   0.270   2.116   0.242
  235SOL    HW2  705   0.265   2.200   0.116
  236SOL    OW   706   0.479   2.152   0.567
  236SOL    HW1  707   0.420   2.226   0.577
  236SOL    HW2  708   0.457   2.093   0.639
  237SOL    OW   709   0.731   2.104   0.568
  237SOL    HW1  710   0.638   2.119   0.549
  237SOL    HW2  711   0.771   2.191   0.562
  238SOL    OW   712   0.956   2.131   0.207
  238SOL    HW1  713   0.982   2.207   0.259
  238SOL    HW2  714   0.887   2.164   0.150
  239SOL    OW   715   0.837   2.490   1.224
  239SOL    HW1  716   0.870   2.546   1.295
  239SOL    HW2  717   0.872   2.528   1.144
  240SOL    OW   718   0.001   1.990   1.059
  240SOL    HW1  719   0.014   1.969   1.152
  240SOL    HW2  720   0.060   2.063   1.042
  241SOL    OW   721   0.376   2.015   0.351
  241SOL    HW1  722   0.384   2.069   0.430
  241SOL    HW2  723   0.326   1.938   0.379
  242SOL    OW   724   0.375   1.975   0.799
  242SOL    HW1  725   0.313   2.023   0.854
  242SOL    HW2  726   0.453   1.965   0.854
  243SOL    OW   727   0.586   2.060   5.989
  243SOL    HW1  728   0.604   2.004   6.064
  243SOL    HW2  729   0.646   2.133   5.998
  244SOL    OW   730   0.820   1.992   0.822
  244SOL    HW1  731   0.865   2.066   0.862
  244SOL    HW2  732   0.793   2.023   0.735
  245SOL    OW   733   0.813   1.949   0.370
  245SOL    HW1  734   0.873   2.007   0.323
  245SOL    HW2  735   0.788   1.997   0.448
  246SOL    OW   736   3.601   2.010   0.135
  246SOL    HW1  737   3.533   2.063   0.176
  246SOL    HW2  738   3.682   2.059   0.151
  247SOL    OW   739   0.598   1.914   0.219
  247SOL    HW1  740   0.528   1.951   0.273
  247SOL    HW2  741   0.679   1.936   0.266
  248SOL    OW   742   0.824   1.490   0.822
  248SOL    HW1  743   0.787   1.464   0.738
  248SOL    HW2  744   0.886   1.559   0.800
  249SOL    OW   745   3.579   1.798   0.303
  249SOL    HW1  746   3.567   1.857   0.228
  249SOL    HW2  747   3.674   1.797   0.317
  250SOL    OW   748   3.578   1.555   1.332
  250SOL    HW1  749   3.587   1.619   1.402
  250SOL    HW2  750   3.581   1.607   1.251
  251SOL    OW   751   0.236   1.798   0.421
  251SOL    HW1  752   0.220   1.789   0.515
  251SOL    HW2  753   0.281   1.717   0.396
  252SOL    OW   754   0.213   1.768   0.699
  252SOL    HW1  755   0.262   1.842   0.734
  252SOL    HW2  756   0.130   1.770   0.747
  253SOL    OW   757   0.835   1.525   0.385
  253SOL    HW1  758   0.804   1.472   0.459
  253SOL    HW2  759   0.886   1.595   0.426
  254SOL    OW   760   0.948   1.749   0.740
  254SOL    HW1  761   0.900   1.821   0.782
  254SOL    HW2  762   1.034   1.749   0.781
  255SOL    OW   763   0.611   1.613   0.936
  255SOL    HW1  764   0.686   1.568   0.896
  255SOL    HW2  765   0.595   1.565   1.017
  256SOL    OW   766   0.600   1.482  -0.001
  256SOL    HW1  767   0.594   1.527   0.083
  256SOL    HW2  768   0.670   1.418   0.010
  257SOL    OW   769   3.579   1.553   0.135
  257SOL    HW1  770   3.582   1.641   0.174
  257SOL    HW2  771   3.669   1.520   0.145
  258SOL    OW   772   0.368   1.563   0.786
  258SOL    HW1  773   0.327   1.644   0.754
  258SOL    HW2  774   0.452   1.592   0.822
  259SOL    OW   775   0.613   1.618   0.239
  259SOL    HW1  776   0.684   1.586   0.294
  259SOL    HW2  777   0.627   1.712   0.233
  260SOL    OW   778   0.914   1.170   0.542
  260SOL    HW1  779   0.841   1.108   0.538
  260SOL    HW2  780   0.940   1.171   0.634
  261SOL    OW   781   0.448   0.961   0.569
  261SOL    HW1  782   0.409   0.917   0.645
  261SOL    HW2  783   0.435   0.900   0.496
  262SOL    OW   784   3.361   1.431   0.989
  262SOL    HW1  785   3.301   1.484   0.935
  262SOL    HW2  786   3.422   1.495   1.026
  263SOL    OW   787   0.372   1.565   0.345
  263SOL    HW1  788   0.457   1.575   0.302
  263SOL    HW2  789   0.390   1.509   0.420
  264SOL    OW   790   0.190   1.397   5.796
  264SOL    HW1  791   0.117   1.443   5.839
  264SOL    HW2  792   0.250   1.378   5.868
  265SOL    OW   793   0.468   1.418   0.561
  265SOL    HW1  794   0.461   1.470   0.641
  265SOL    HW2  795   0.413   1.341   0.578
  266SOL    OW   796   1.236   1.498   0.117
  266SOL    HW1  797   1.160   1.449   0.148
  266SOL    HW2  798   1.236   1.578   0.169
  267SOL    OW   799   0.947   1.336   1.002
  267SOL    HW1  800   0.890   1.389   0.946
  267SOL    HW2  801   1.014   1.396   1.033
  268SOL    OW   802   0.216   1.440   0.167
  268SOL    HW1  803   0.191   1.361   0.215
  268SOL    HW2  804   0.277   1.485   0.225
  269SOL    OW   805   0.749   1.374   0.573
  269SOL    HW1  806   0.662   1.344   0.548
  269SOL    HW2  807   0.805   1.296   0.566
  270SOL    OW   808   3.206   1.561   0.807
  270SOL    HW1  809   3.131   1.592   0.858
  270SOL    HW2  810   3.258   1.640   0.790
  271SOL    OW   811   0.821   1.301   6.000
  271SOL    HW1  812   0.871   1.314   6.080
  271SOL    HW2  813   0.881   1.325   5.930
  272SOL    OW   814   0.119   1.193   0.815
  272SOL    HW1  815   0.144   1.281   0.844
  272SOL    HW2  816   0.152   1.187   0.725
  273SOL    OW   817   0.294   1.199   0.580
  273SOL    HW1  818   0.238   1.192   0.503
  273SOL    HW2  819   0.345   1.119   0.581
  274SOL    OW   820   1.088   1.139   0.340
  274SOL    HW1  821   1.177   1.130   0.374
  274SOL    HW2  822   1.034   1.150   0.419
  275SOL    OW   823   1.007   1.155   0.799
  275SOL    HW1  824   0.971   1.212   0.867
  275SOL    HW2  825   1.101   1.151   0.818
  276SOL    OW   826   1.434   1.343   0.232
  276SOL    HW1  827   1.484   1.411   0.279
  276SOL    HW2  828   1.369   1.392   0.183
  277SOL    OW   829   0.147   1.210   1.583
  277SOL    HW1  830   0.163   1.283   1.524
  277SOL    HW2  831   0.145   1.133   1.527
  278SOL    OW   832   0.593   1.921   0.978
  278SOL    HW1  833   0.674   1.927   0.927
  278SOL    HW2  834   0.594   1.832   1.014
  279SOL    OW   835   0.626   2.125   1.192
  279SOL    HW1  836   0.614   2.075   1.111
  279SOL    HW2  837   0.719   2.149   1.192
  280SOL    OW   838   0.196   2.158   2.187
  280SOL    HW1  839   0.156   2.227   2.134
  280SOL    HW2  840   0.224   2.203   2.267
  281SOL    OW   841   0.820   2.015   1.566
  281SOL    HW1  842   0.797   2.068   1.642
  281SOL    HW2  843   0.867   1.940   1.603
  282SOL    OW   844   0.471   2.145   1.796
  282SOL    HW1  845   0.421   2.227   1.798
  282SOL    HW2  846   0.448   2.101   1.877
  283SOL    OW   847   0.747   2.133   1.800
  283SOL    HW1  848   0.652   2.139   1.805
  283SOL    HW2  849   0.777   2.223   1.792
  284SOL    OW   850   1.002   2.165   1.430
  284SOL    HW1  851   0.939   2.113   1.481
  284SOL    HW2  852   1.015   2.244   1.482
  285SOL    OW   853   0.968   2.164   2.197
  285SOL    HW1  854   1.007   2.223   2.132
  285SOL    HW2  855   1.038   2.103   2.219
  286SOL    OW   856   3.599   1.999   2.284
  286SOL    HW1  857   3.589   1.998   2.379
  286SOL    HW2  858   3.673   2.058   2.268
  287SOL    OW   859   0.382   2.022   1.554
  287SOL    HW1  860   0.462   1.998   1.509
  287SOL    HW2  861   0.411   2.071   1.631
  288SOL    OW   862   0.349   2.011   2.025
  288SOL    HW1  863   0.299   2.071   2.080
  288SOL    HW2  864   0.434   2.005   2.067
  289SOL    OW   865   0.599   1.671   1.428
  289SOL    HW1  866   0.675   1.647   1.481
  289SOL    HW2  867   0.610   1.765   1.413
  290SOL    OW   868   0.838   1.998   2.025
  290SOL    HW1  869   0.802   2.042   1.948
  290SOL    HW2  870   0.882   2.068   2.074
  291SOL    OW   871   0.871   2.215   1.186
  291SOL    HW1  872   0.835   2.303   1.198
  291SOL    HW2  873   0.916   2.197   1.269
  292SOL    OW   874   0.038   1.964   1.343
  292SOL    HW1  875  -0.048   2.004   1.360
  292SOL    HW2  876   0.101   2.034   1.361
  293SOL    OW   877   0.004   1.759   1.525
  293SOL    HW1  878   0.015   1.818   1.450
  293SOL    HW2  879   0.086   1.767   1.574
  294SOL    OW   880   0.554   2.130   2.397
  294SOL    HW1  881   0.645   2.156   2.415
  294SOL    HW2  882   0.560   2.075   2.319
  295SOL    OW   883   3.215   1.554   1.594
  295SOL    HW1  884   3.271   1.628   1.616
  295SOL    HW2  885   3.261   1.509   1.522
  296SOL    OW   886   0.197   1.787   1.956
  296SOL    HW1  887   0.112   1.784   1.999
  296SOL    HW2  888   0.243   1.860   1.998
  297SOL    OW   889   0.224   1.793   1.677
  297SOL    HW1  890   0.210   1.786   1.771
  297SOL    HW2  891   0.264   1.879   1.664
  298SOL    OW   892   0.380   1.581   2.006
  298SOL    HW1  893   0.321   1.652   1.981
  298SOL    HW2  894   0.326   1.521   2.056
  299SOL    OW   895   1.187   2.009   1.284
  299SOL    HW1  896   1.110   2.063   1.295
  299SOL    HW2  897   1.259   2.062   1.319
  300SOL    OW   898   0.615   1.967   1.406
  300SOL    HW1  899   0.684   1.995   1.466
  300SOL    HW2  900   0.626   2.022   1.329
  301SOL    OW   901   0.993   1.822   1.911
  301SOL    HW1  902   1.072   1.821   1.965
  301SOL    HW2  903   0.933   1.882   1.956
  302SOL    OW   904   0.455   1.442   1.755
  302SOL    HW1  905   0.405   1.494   1.818
  302SOL    HW2  906   0.441   1.486   1.671
  303SOL    OW   907   3.363   1.782   1.637
  303SOL    HW1  908   3.367   1.784   1.732
  303SOL    HW2  909   3.455   1.774   1.609
  304SOL    OW   910   0.612   1.689   2.144
  304SOL    HW1  911   0.531   1.655   2.106
  304SOL    HW2  912   0.618   1.648   2.230
  305SOL    OW   913   0.745   1.438   1.813
  305SOL    HW1  914   0.654   1.423   1.842
  305SOL    HW2  915   0.786   1.485   1.885
  306SOL    OW   916   0.362   1.585   1.547
  306SOL    HW1  917   0.317   1.659   1.586
  306SOL    HW2  918   0.422   1.623   1.483
  307SOL    OW   919   0.960   1.787   1.628
  307SOL    HW1  920   1.040   1.793   1.576
  307SOL    HW2  921   0.990   1.792   1.718
  308SOL    OW   922   3.600   1.540   2.230
  308SOL    HW1  923   3.547   1.465   2.202
  308SOL    HW2  924   3.691   1.511   2.221
  309SOL    OW   925   0.328   1.353   1.173
  309SOL    HW1  926   0.410   1.401   1.189
  309SOL    HW2  927   0.277   1.367   1.253
  310SOL    OW   928   0.200   1.426   0.950
  310SOL    HW1  929   0.251   1.486   0.895
  310SOL    HW2  930   0.249   1.423   1.032
  311SOL    OW   931   0.854   1.610   2.029
  311SOL    HW1  932   0.785   1.643   2.087
  311SOL    HW2  933   0.895   1.689   1.993
  312SOL    OW   934   0.976   1.374   1.428
  312SOL    HW1  935   0.911   1.426   1.475
  312SOL    HW2  936   1.044   1.436   1.403
  313SOL    OW   937   0.972   1.397   2.172
  313SOL    HW1  938   1.045   1.453   2.199
  313SOL    HW2  939   0.920   1.451   2.113
  314SOL    OW   940   0.587   1.493   1.203
  314SOL    HW1  941   0.588   1.546   1.283
  314SOL    HW2  942   0.642   1.418   1.224
  315SOL    OW   943   0.810   1.560   1.584
  315SOL    HW1  944   0.864   1.636   1.604
  315SOL    HW2  945   0.784   1.525   1.670
  316SOL    OW   946   3.391   1.373   2.139
  316SOL    HW1  947   3.398   1.289   2.094
  316SOL    HW2  948   3.358   1.434   2.073
  317SOL    OW   949   0.782   1.255   1.227
  317SOL    HW1  950   0.846   1.289   1.289
  317SOL    HW2  951   0.821   1.272   1.141
  318SOL    OW   952   0.235   1.388   2.151
  318SOL    HW1  953   0.290   1.330   2.204
  318SOL    HW2  954   0.185   1.329   2.095
  319SOL    OW   955   0.320   1.192   1.789
  319SOL    HW1  956   0.279   1.195   1.702
  319SOL    HW2  957   0.387   1.260   1.786
  320SOL    OW   958   0.895   1.181   1.789
  320SOL    HW1  959   0.841   1.260   1.796
  320SOL    HW2  960   0.943   1.177   1.872
  321SOL    OW   961   1.043   1.155   2.041
  321SOL    HW1  962   1.034   1.241   2.081
  321SOL    HW2  963   1.137   1.146   2.025
  322SOL    OW   964   1.067   1.164   1.583
  322SOL    HW1  965   1.017   1.168   1.665
  322SOL    HW2  966   1.037   1.240   1.533
  323SOL    OW   967   0.142   1.178   2.726
  323SOL    HW1  968   0.046   1.172   2.725
  323SOL    HW2  969   0.171   1.090   2.702
  324SOL    OW   970   0.293   2.294   2.409
  324SOL    HW1  971   0.306   2.389   2.403
  324SOL    HW2  972   0.382   2.259   2.417
  325SOL    OW   973   0.813   2.256   2.407
  325SOL    HW1  974   0.813   2.351   2.391
  325SOL    HW2  975   0.861   2.219   2.333
  326SOL    OW   976   0.169   2.164   3.352
  326SOL    HW1  977   0.124   2.244   3.325
  326SOL    HW2  978   0.216   2.188   3.431
  327SOL    OW   979   0.194   2.177   2.647
  327SOL    HW1  980   0.268   2.129   2.685
  327SOL    HW2  981   0.233   2.228   2.576
  328SOL    OW   982   0.473   2.154   3.009
  328SOL    HW1  983   0.427   2.238   3.009
  328SOL    HW2  984   0.447   2.113   3.091
  329SOL    OW   985   0.772   2.155   3.004
  329SOL    HW1  986   0.677   2.161   3.015
  329SOL    HW2  987   0.803   2.245   3.012
  330SOL    OW   988   0.981   2.125   2.582
  330SOL    HW1  989   0.915   2.075   2.630
  330SOL    HW2  990   0.929   2.180   2.522
  331SOL    OW   991   0.951   2.149   3.388
  331SOL    HW1  992   0.999   2.210   3.332
  331SOL    HW2  993   0.893   2.102   3.327
  332SOL    OW   994   3.572   2.009   3.454
  332SOL    HW1  995   3.585   1.998   3.548
  332SOL    HW2  996   3.653   2.049   3.422
  333SOL    OW   997   0.371   2.028   2.788
  333SOL    HW1  998   0.389   2.068   2.873
  333SOL    HW2  999   0.312   1.955   2.808
  334SOL    OW  1000   0.369   2.006   3.217
  334SOL    HW1 1001   0.331   1.924   3.184
  334SOL    HW2 1002   0.296   2.049   3.261
  335SOL    OW  1003   0.576   1.973   2.620
  335SOL    HW1 1004   0.505   1.994   2.682
  335SOL    HW2 1005   0.548   2.011   2.537
  336SOL    OW  1006   0.829   1.975   3.190
  336SOL    HW1 1007   0.798   2.039   3.126
  336SOL    HW2 1008   0.751   1.948   3.237
  337SOL    OW  1009   0.582   1.684   2.593
  337SOL    HW1 1010   0.575   1.779   2.600
  337SOL    HW2 1011   0.505   1.650   2.637
  338SOL    OW  1012   3.573   2.008   2.551
  338SOL    HW1 1013   3.498   2.065   2.568
  338SOL    HW2 1014   3.649   2.058   2.581
  339SOL    OW  1015   0.941   1.760   2.851
  339SOL    HW1 1016   0.901   1.846   2.834
  339SOL    HW2 1017   0.967   1.764   2.943
  340SOL    OW  1018   0.603   1.916   3.334
  340SOL    HW1 1019   0.532   1.930   3.272
  340SOL    HW2 1020   0.576   1.964   3.413
  341SOL    OW  1021   0.020   1.530   2.516
  341SOL    HW1 1022   0.004   1.550   2.424
  341SOL    HW2 1023   0.018   1.615   2.560
  342SOL    OW  1024   3.605   1.774   3.311
  342SOL    HW1 1025   3.605   1.831   3.387
  342SOL    HW2 1026   3.519   1.787   3.270
  343SOL    OW  1027   0.215   1.801   2.839
  343SOL    HW1 1028   0.270   1.730   2.805
  343SOL    HW2 1029   0.221   1.792   2.935
  344SOL    OW  1030   0.275   1.769   3.117
  344SOL    HW1 1031   0.204   1.744   3.177
  344SOL    HW2 1032   0.343   1.705   3.133
  345SOL    OW  1033   1.173   1.767   2.688
  345SOL    HW1 1034   1.097   1.751   2.744
  345SOL    HW2 1035   1.247   1.766   2.748
  346SOL    OW  1036   0.989   1.756   3.106
  346SOL    HW1 1037   0.952   1.837   3.141
  346SOL    HW2 1038   1.069   1.743   3.157
  347SOL    OW  1039   0.626   1.650   3.355
  347SOL    HW1 1040   0.621   1.746   3.353
  347SOL    HW2 1041   0.637   1.628   3.447
  348SOL    OW  1042   0.585   1.974   2.157
  348SOL    HW1 1043   0.670   2.008   2.128
  348SOL    HW2 1044   0.601   1.880   2.172
  349SOL    OW  1045   0.019   1.758   2.665
  349SOL    HW1 1046   0.089   1.779   2.726
  349SOL    HW2 1047  -0.001   1.841   2.622
  350SOL    OW  1048   0.420   1.546   3.201
  350SOL    HW1 1049   0.375   1.483   3.257
  350SOL    HW2 1050   0.492   1.580   3.254
  351SOL    OW  1051   0.809   2.021   2.768
  351SOL    HW1 1052   0.766   2.058   2.844
  351SOL    HW2 1053   0.739   2.007   2.704
  352SOL    OW  1054   0.366   1.588   2.715
  352SOL    HW1 1055   0.329   1.519   2.660
  352SOL    HW2 1056   0.411   1.542   2.785
  353SOL    OW  1057   0.816   1.530   3.197
  353SOL    HW1 1058   0.760   1.575   3.260
  353SOL    HW2 1059   0.866   1.600   3.155
  354SOL    OW  1060   0.270   1.385   3.369
  354SOL    HW1 1061   0.187   1.422   3.400
  354SOL    HW2 1062   0.313   1.352   3.449
  355SOL    OW  1063   0.242   1.389   2.558
  355SOL    HW1 1064   0.167   1.446   2.545
  355SOL    HW2 1065   0.208   1.315   2.608
  356SOL    OW  1066   0.413   1.314   2.373
  356SOL    HW1 1067   0.354   1.339   2.444
  356SOL    HW2 1068   0.474   1.387   2.365
  357SOL    OW  1069   0.485   1.423   2.928
  357SOL    HW1 1070   0.468   1.467   3.011
  357SOL    HW2 1071   0.577   1.399   2.933
  358SOL    OW  1072   0.958   1.393   2.616
  358SOL    HW1 1073   0.885   1.419   2.672
  358SOL    HW2 1074   1.003   1.325   2.665
  359SOL    OW  1075   0.947   1.381   3.375
  359SOL    HW1 1076   0.911   1.436   3.305
  359SOL    HW2 1077   1.028   1.424   3.401
  360SOL    OW  1078   0.595   1.524   2.371
  360SOL    HW1 1079   0.576   1.584   2.443
  360SOL    HW2 1080   0.677   1.482   2.396
  361SOL    OW  1081   0.753   1.401   2.957
  361SOL    HW1 1082   0.762   1.452   3.037
  361SOL    HW2 1083   0.763   1.466   2.887
  362SOL    OW  1084   0.025   1.517   3.433
  362SOL    HW1 1085   0.017   1.529   3.527
  362SOL    HW2 1086   0.024   1.606   3.397
  363SOL    OW  1087   0.801   1.356   2.383
  363SOL    HW1 1088   0.860   1.384   2.453
  363SOL    HW2 1089   0.847   1.381   2.302
  364SOL    OW  1090   0.170   1.164   3.224
  364SOL    HW1 1091   0.201   1.243   3.269
  364SOL    HW2 1092   0.215   1.166   3.139
  365SOL    OW  1093   0.324   1.199   2.964
  365SOL    HW1 1094   0.275   1.189   2.883
  365SOL    HW2 1095   0.376   1.278   2.951
  366SOL    OW  1096   0.898   1.158   2.990
  366SOL    HW1 1097   0.844   1.237   2.983
  366SOL    HW2 1098   0.963   1.180   3.057
  367SOL    OW  1099   1.101   1.211   3.212
  367SOL    HW1 1100   1.074   1.276   3.277
  367SOL    HW2 1101   1.183   1.176   3.246
  368SOL    OW  1102   1.057   1.181   2.770
  368SOL    HW1 1103   1.005   1.171   2.850
  368SOL    HW2 1104   1.039   1.102   2.720
  369SOL    OW  1105   0.097   1.189   3.920
  369SOL    HW1 1106   0.120   1.105   3.880
  369SOL    HW2 1107   0.007   1.177   3.951
  370SOL    OW  1108   0.341   2.231   3.547
  370SOL    HW1 1109   0.373   2.321   3.554
  370SOL    HW2 1110   0.420   2.177   3.545
  371SOL    OW  1111   0.798   2.226   3.579
  371SOL    HW1 1112   0.791   2.320   3.596
  371SOL    HW2 1113   0.860   2.218   3.507
  372SOL    OW  1114   0.234   2.207   4.539
  372SOL    HW1 1115   0.273   2.244   4.617
  372SOL    HW2 1116   0.194   2.281   4.493
  373SOL    OW  1117   0.215   2.188   3.786
  373SOL    HW1 1118   0.277   2.152   3.850
  373SOL    HW2 1119   0.268   2.206   3.709
  374SOL    OW  1120   0.463   2.143   4.155
  374SOL    HW1 1121   0.438   2.233   4.136
  374SOL    HW2 1122   0.559   2.145   4.158
  375SOL    OW  1123   0.744   2.155   4.173
  375SOL    HW1 1124   0.763   2.095   4.101
  375SOL    HW2 1125   0.816   2.219   4.171
  376SOL    OW  1126   0.950   2.150   3.801
  376SOL    HW1 1127   1.034   2.108   3.779
  376SOL    HW2 1128   0.910   2.169   3.715
  377SOL    OW  1129   0.943   2.157   4.567
  377SOL    HW1 1130   0.885   2.111   4.506
  377SOL    HW2 1131   0.891   2.166   4.647
  378SOL    OW  1132   0.009   2.042   4.616
  378SOL    HW1 1133  -0.001   2.032   4.710
  378SOL    HW2 1134   0.085   2.099   4.605
  379SOL    OW  1135   0.353   2.009   3.937
  379SOL    HW1 1136   0.388   2.046   4.018
  379SOL    HW2 1137   0.292   1.941   3.966
  380SOL    OW  1138   0.361   2.022   4.399
  380SOL    HW1 1139   0.314   2.087   4.451
  380SOL    HW2 1140   0.399   2.071   4.327
  381SOL    OW  1141   0.563   2.060   3.570
  381SOL    HW1 1142   0.571   2.007   3.649
  381SOL    HW2 1143   0.647   2.107   3.565
  382SOL    OW  1144   0.563   1.662   4.513
  382SOL    HW1 1145   0.650   1.628   4.491
  382SOL    HW2 1146   0.580   1.754   4.537
  383SOL    OW  1147   0.787   1.977   3.954
  383SOL    HW1 1148   0.851   1.912   3.983
  383SOL    HW2 1149   0.836   2.035   3.895
  384SOL    OW  1150   0.016   1.981   3.744
  384SOL    HW1 1151  -0.051   2.046   3.764
  384SOL    HW2 1152   0.099   2.026   3.758
  385SOL    OW  1153   0.573   1.914   3.794
  385SOL    HW1 1154   0.500   1.937   3.852
  385SOL    HW2 1155   0.650   1.946   3.840
  386SOL    OW  1156   0.565   2.079   4.805
  386SOL    HW1 1157   0.572   2.017   4.877
  386SOL    HW2 1158   0.638   2.140   4.818
  387SOL    OW  1159   3.566   1.767   3.903
  387SOL    HW1 1160   3.591   1.846   3.855
  387SOL    HW2 1161   3.641   1.749   3.960
  388SOL    OW  1162   0.180   1.818   4.328
  388SOL    HW1 1163   0.240   1.887   4.356
  388SOL    HW2 1164   0.222   1.737   4.357
  389SOL    OW  1165   0.195   1.777   4.056
  389SOL    HW1 1166   0.187   1.794   4.150
  389SOL    HW2 1167   0.256   1.704   4.050
  390SOL    OW  1168   0.320   1.574   4.425
  390SOL    HW1 1169   0.405   1.593   4.464
  390SOL    HW2 1170   0.275   1.520   4.489
  391SOL    OW  1171   0.954   1.778   4.023
  391SOL    HW1 1172   0.979   1.777   4.116
  391SOL    HW2 1173   1.036   1.775   3.975
  392SOL    OW  1174   1.189   1.758   4.453
  392SOL    HW1 1175   1.181   1.843   4.496
  392SOL    HW2 1176   1.262   1.768   4.391
  393SOL    OW  1177   0.564   1.941   4.566
  393SOL    HW1 1178   0.576   1.989   4.648
  393SOL    HW2 1179   0.495   1.990   4.520
  394SOL    OW  1180   0.581   1.638   3.865
  394SOL    HW1 1181   0.596   1.727   3.834
  394SOL    HW2 1182   0.653   1.622   3.926
  395SOL    OW  1183   3.590   1.574   3.695
  395SOL    HW1 1184   3.576   1.655   3.744
  395SOL    HW2 1185   3.655   1.525   3.746
  396SOL    OW  1186   0.181   1.396   4.601
  396SOL    HW1 1187   0.167   1.313   4.556
  396SOL    HW2 1188   0.240   1.375   4.673
  397SOL    OW  1189   0.361   1.553   4.000
  397SOL    HW1 1190   0.394   1.515   4.081
  397SOL    HW2 1191   0.439   1.581   3.952
  398SOL    OW  1192   0.808   1.538   3.993
  398SOL    HW1 1193   0.794   1.491   4.075
  398SOL    HW2 1194   0.866   1.610   4.017
  399SOL    OW  1195   0.930   1.788   4.321
  399SOL    HW1 1196   1.007   1.777   4.377
  399SOL    HW2 1197   0.886   1.866   4.354
  400SOL    OW  1198   0.107   1.184   4.421
  400SOL    HW1 1199   0.143   1.197   4.333
  400SOL    HW2 1200   0.155   1.109   4.456
  401SOL    OW  1201   0.182   1.444   3.823
  401SOL    HW1 1202   0.152   1.358   3.851
  401SOL    HW2 1203   0.234   1.477   3.896
  402SOL    OW  1204   0.362   1.346   3.627
  402SOL    HW1 1205   0.310   1.400   3.687
  402SOL    HW2 1206   0.446   1.392   3.620
  403SOL    OW  1207   0.710   1.402   4.215
  403SOL    HW1 1208   0.614   1.399   4.215
  403SOL    HW2 1209   0.737   1.316   4.185
  404SOL    OW  1210   0.971   1.414   3.791
  404SOL    HW1 1211   0.926   1.462   3.861
  404SOL    HW2 1212   1.043   1.471   3.766
  405SOL    OW  1213   0.986   1.415   4.583
  405SOL    HW1 1214   0.919   1.461   4.533
  405SOL    HW2 1215   1.049   1.483   4.607
  406SOL    OW  1216   0.591   1.494   3.631
  406SOL    HW1 1217   0.596   1.541   3.714
  406SOL    HW2 1218   0.669   1.439   3.629
  407SOL    OW  1219   0.810   1.549   4.429
  407SOL    HW1 1220   0.864   1.613   4.382
  407SOL    HW2 1221   0.777   1.491   4.360
  408SOL    OW  1222   3.555   1.547   4.619
  408SOL    HW1 1223   3.634   1.500   4.589
  408SOL    HW2 1224   3.566   1.636   4.588
  409SOL    OW  1225   0.791   1.325   3.604
  409SOL    HW1 1226   0.839   1.366   3.676
  409SOL    HW2 1227   0.827   1.365   3.525
  410SOL    OW  1228   0.257   1.198   4.173
  410SOL    HW1 1229   0.224   1.193   4.083
  410SOL    HW2 1230   0.322   1.127   4.178
  411SOL    OW  1231   0.447   1.437   4.219
  411SOL    HW1 1232   0.396   1.357   4.216
  411SOL    HW2 1233   0.415   1.483   4.297
  412SOL    OW  1234   0.912   1.178   4.188
  412SOL    HW1 1235   0.871   1.091   4.196
  412SOL    HW2 1236   0.978   1.179   4.258
  413SOL    OW  1237   1.083   1.201   4.414
  413SOL    HW1 1238   1.059   1.286   4.450
  413SOL    HW2 1239   1.179   1.199   4.416
  414SOL    OW  1240   1.066   1.190   3.962
  414SOL    HW1 1241   1.020   1.182   4.046
  414SOL    HW2 1242   1.035   1.274   3.927
  415SOL    OW  1243   0.126   1.195   5.127
  415SOL    HW1 1244   0.034   1.194   5.152
  415SOL    HW2 1245   0.140   1.111   5.085
  416SOL    OW  1246   3.596   1.570   4.918
  416SOL    HW1 1247   3.665   1.506   4.936
  416SOL    HW2 1248   3.609   1.593   4.826
  417SOL    OW  1249   0.809   2.232   4.824
  417SOL    HW1 1250   0.801   2.328   4.824
  417SOL    HW2 1251   0.863   2.213   4.900
  418SOL    OW  1252   0.201   2.163   5.768
  418SOL    HW1 1253   0.171   2.243   5.725
  418SOL    HW2 1254   0.248   2.194   5.845
  419SOL    OW  1255   0.193   2.199   4.993
  419SOL    HW1 1256   0.245   2.147   5.054
  419SOL    HW2 1257   0.128   2.138   4.959
  420SOL    OW  1258   0.406   2.180   5.387
  420SOL    HW1 1259   0.358   2.264   5.384
  420SOL    HW2 1260   0.367   2.134   5.462
  421SOL    OW  1261   0.679   2.143   5.403
  421SOL    HW1 1262   0.590   2.165   5.374
  421SOL    HW2 1263   0.723   2.228   5.410
  422SOL    OW  1264   0.933   2.152   5.045
  422SOL    HW1 1265   0.951   2.232   5.094
  422SOL    HW2 1266   1.020   2.121   5.019
  423SOL    OW  1267   0.917   2.164   5.810
  423SOL    HW1 1268   0.943   2.243   5.762
  423SOL    HW2 1269   0.999   2.116   5.823
  424SOL    OW  1270   3.563   2.025   5.833
  424SOL    HW1 1271   3.579   2.000   5.924
  424SOL    HW2 1272   3.641   2.074   5.807
  425SOL    OW  1273   0.337   2.032   5.178
  425SOL    HW1 1274   0.342   2.081   5.259
  425SOL    HW2 1275   0.276   1.960   5.197
  426SOL    OW  1276   0.346   2.020   5.598
  426SOL    HW1 1277   0.300   2.065   5.669
  426SOL    HW2 1278   0.423   1.981   5.639
  427SOL    OW  1279   0.788   2.011   4.398
  427SOL    HW1 1280   0.706   2.001   4.446
  427SOL    HW2 1281   0.763   2.055   4.316
  428SOL    OW  1282   0.752   1.992   5.624
  428SOL    HW1 1283   0.710   2.049   5.560
  428SOL    HW2 1284   0.812   2.049   5.672
  429SOL    OW  1285   0.807   1.988   5.224
  429SOL    HW1 1286   0.753   2.041   5.282
  429SOL    HW2 1287   0.860   2.051   5.176
  430SOL    OW  1288   3.590   2.028   4.891
  430SOL    HW1 1289   3.512   2.066   4.930
  430SOL    HW2 1290   3.601   1.944   4.936
  431SOL    OW  1291   0.588   1.919   5.033
  431SOL    HW1 1292   0.521   1.953   5.093
  431SOL    HW2 1293   0.671   1.944   5.073
  432SOL    OW  1294   0.537   1.875   5.761
  432SOL    HW1 1295   0.548   1.922   5.844
  432SOL    HW2 1296   0.612   1.902   5.709
  433SOL    OW  1297   3.579   1.798   5.097
  433SOL    HW1 1298   3.647   1.800   5.164
  433SOL    HW2 1299   3.612   1.736   5.032
  434SOL    OW  1300   3.594   1.785   5.723
  434SOL    HW1 1301   3.586   1.874   5.757
  434SOL    HW2 1302   3.663   1.791   5.656
  435SOL    OW  1303   0.203   1.803   5.268
  435SOL    HW1 1304   0.200   1.784   5.362
  435SOL    HW2 1305   0.251   1.730   5.230
  436SOL    OW  1306   0.227   1.774   5.552
  436SOL    HW1 1307   0.286   1.843   5.582
  436SOL    HW2 1308   0.275   1.692   5.568
  437SOL    OW  1309   0.978   1.766   5.287
  437SOL    HW1 1310   0.967   1.763   5.383
  437SOL    HW2 1311   0.923   1.839   5.259
  438SOL    OW  1312   0.916   1.751   5.570
  438SOL    HW1 1313   0.867   1.833   5.584
  438SOL    HW2 1314   0.987   1.755   5.634
  439SOL    OW  1315   0.604   1.608   5.759
  439SOL    HW1 1316   0.593   1.703   5.765
  439SOL    HW2 1317   0.612   1.579   5.850
  440SOL    OW  1318   0.586   1.647   5.058
  440SOL    HW1 1319   0.584   1.739   5.032
  440SOL    HW2 1320   0.585   1.599   4.975
  441SOL    OW  1321   3.360   1.427   5.032
  441SOL    HW1 1322   3.309   1.467   5.102
  441SOL    HW2 1323   3.432   1.488   5.016
  442SOL    OW  1324   0.362   1.544   5.627
  442SOL    HW1 1325   0.291   1.514   5.685
  442SOL    HW2 1326   0.430   1.575   5.686
  443SOL    OW  1327   0.360   1.585   5.182
  443SOL    HW1 1328   0.383   1.508   5.235
  443SOL    HW2 1329   0.436   1.601   5.128
  444SOL    OW  1330   0.793   1.570   5.213
  444SOL    HW1 1331   0.713   1.608   5.176
  444SOL    HW2 1332   0.839   1.644   5.251
  445SOL    OW  1333   0.828   1.501   5.636
  445SOL    HW1 1334   0.750   1.525   5.685
  445SOL    HW2 1335   0.874   1.584   5.621
  446SOL    OW  1336   3.575   1.550   5.855
  446SOL    HW1 1337   3.584   1.629   5.802
  446SOL    HW2 1338   3.577   1.582   5.946
  447SOL    OW  1339   0.210   1.423   4.974
  447SOL    HW1 1340   0.167   1.351   5.021
  447SOL    HW2 1341   0.241   1.481   5.042
  448SOL    OW  1342   0.364   1.305   4.793
  448SOL    HW1 1343   0.308   1.342   4.861
  448SOL    HW2 1344   0.443   1.359   4.794
  449SOL    OW  1345   0.431   1.378   5.392
  449SOL    HW1 1346   0.405   1.427   5.471
  449SOL    HW2 1347   0.527   1.384   5.392
  450SOL    OW  1348   0.949   1.444   5.041
  450SOL    HW1 1349   1.033   1.489   5.049
  450SOL    HW2 1350   0.893   1.485   5.107
  451SOL    OW  1351   0.968   1.334   5.784
  451SOL    HW1 1352   0.913   1.386   5.725
  451SOL    HW2 1353   1.046   1.388   5.798
  452SOL    OW  1354   0.567   1.525   4.813
  452SOL    HW1 1355   0.651   1.479   4.806
  452SOL    HW2 1356   0.558   1.568   4.728
  453SOL    OW  1357   0.725   1.376   5.403
  453SOL    HW1 1358   0.776   1.417   5.473
  453SOL    HW2 1359   0.738   1.433   5.327
  454SOL    OW  1360   3.357   1.369   5.800
  454SOL    HW1 1361   3.304   1.428   5.746
  454SOL    HW2 1362   3.435   1.420   5.821
  455SOL    OW  1363   0.822   1.374   4.799
  455SOL    HW1 1364   0.870   1.403   4.876
  455SOL    HW2 1365   0.887   1.376   4.728
  456SOL    OW  1366   0.101   1.179   5.635
  456SOL    HW1 1367   0.138   1.251   5.685
  456SOL    HW2 1368   0.148   1.181   5.551
  457SOL    OW  1369   0.231   1.157   5.378
  457SOL    HW1 1370   0.181   1.161   5.297
  457SOL    HW2 1371   0.285   1.236   5.377
  458SOL    OW  1372   0.855   1.136   5.392
  458SOL    HW1 1373   0.806   1.219   5.391
  458SOL    HW2 1374   0.907   1.140   5.473
  459SOL    OW  1375   1.046   1.148   5.587
  459SOL    HW1 1376   1.014   1.214   5.649
  459SOL    HW2 1377   1.141   1.156   5.590
  460SOL    OW  1378   1.016   1.201   5.175
  460SOL    HW1 1379   0.962   1.175   5.249
  460SOL    HW2 1380   0.981   1.285   5.147
  461SOL    OW  1381   0.125   2.403   0.370
  461SOL    HW1 1382   0.030   2.393   0.371
  461SOL    HW2 1383   0.156   2.337   0.308
  462SOL    OW  1384   0.344   3.454   0.015
  462SOL    HW1 1385   0.429   3.414  -0.002
  462SOL    HW2 1386   0.359   3.548   0.008
  463SOL    OW  1387   0.976   3.345   0.238
  463SOL    HW1 1388   1.003   3.424   0.283
  463SOL    HW2 1389   0.917   3.375   0.169
  464SOL    OW  1390   0.209   3.351   0.955
  464SOL    HW1 1391   0.150   3.412   0.911
  464SOL    HW2 1392   0.242   3.400   1.030
  465SOL    OW  1393   0.207   3.341   0.215
  465SOL    HW1 1394   0.271   3.285   0.258
  465SOL    HW2 1395   0.257   3.387   0.147
  466SOL    OW  1396   0.449   3.341   0.567
  466SOL    HW1 1397   0.410   3.423   0.595
  466SOL    HW2 1398   0.430   3.280   0.639
  467SOL    OW  1399   0.730   3.298   0.610
  467SOL    HW1 1400   0.637   3.315   0.597
  467SOL    HW2 1401   0.770   3.385   0.618
  468SOL    OW  1402   1.034   3.549   0.379
  468SOL    HW1 1403   1.004   3.559   0.470
  468SOL    HW2 1404   1.015   3.634   0.338
  469SOL    OW  1405   1.006   3.365   0.938
  469SOL    HW1 1406   1.026   3.446   0.892
  469SOL    HW2 1407   1.089   3.318   0.940
  470SOL    OW  1408   3.573   3.236   1.046
  470SOL    HW1 1409   3.576   3.220   1.140
  470SOL    HW2 1410   3.649   3.292   1.029
  471SOL    OW  1411   0.387   3.185   0.336
  471SOL    HW1 1412   0.410   3.264   0.385
  471SOL    HW2 1413   0.340   3.131   0.399
  472SOL    OW  1414   0.392   3.180   0.810
  472SOL    HW1 1415   0.353   3.263   0.836
  472SOL    HW2 1416   0.445   3.153   0.885
  473SOL    OW  1417   0.574   3.311   0.027
  473SOL    HW1 1418   0.574   3.233   0.083
  473SOL    HW2 1419   0.664   3.345   0.033
  474SOL    OW  1420   0.799   3.169   0.843
  474SOL    HW1 1421   0.760   3.224   0.775
  474SOL    HW2 1422   0.857   3.228   0.892
  475SOL    OW  1423   0.813   3.156   0.359
  475SOL    HW1 1424   0.777   3.211   0.429
  475SOL    HW2 1425   0.877   3.213   0.315
  476SOL    OW  1426   3.577   3.225   0.166
  476SOL    HW1 1427   3.509   3.288   0.191
  476SOL    HW2 1428   3.659   3.267   0.192
  477SOL    OW  1429   0.582   3.069   0.186
  477SOL    HW1 1430   0.505   3.102   0.232
  477SOL    HW2 1431   0.656   3.112   0.228
  478SOL    OW  1432   0.571   3.092   0.983
  478SOL    HW1 1433   0.586   3.160   1.048
  478SOL    HW2 1434   0.647   3.098   0.924
  479SOL    OW  1435   3.574   3.002   0.336
  479SOL    HW1 1436   3.652   3.010   0.393
  479SOL    HW2 1437   3.568   3.087   0.292
  480SOL    OW  1438   3.570   2.964   0.906
  480SOL    HW1 1439   3.568   3.050   0.947
  480SOL    HW2 1440   3.653   2.963   0.857
  481SOL    OW  1441   0.229   3.000   0.473
  481SOL    HW1 1442   0.224   2.983   0.567
  481SOL    HW2 1443   0.250   2.915   0.434
  482SOL    OW  1444   0.206   2.985   0.772
  482SOL    HW1 1445   0.263   3.059   0.793
  482SOL    HW2 1446   0.256   2.908   0.796
  483SOL    OW  1447   1.013   2.996   0.452
  483SOL    HW1 1448   1.002   2.987   0.546
  483SOL    HW2 1449   0.942   3.055   0.425
  484SOL    OW  1450   0.961   2.953   0.744
  484SOL    HW1 1451   0.914   3.033   0.765
  484SOL    HW2 1452   1.041   2.957   0.797
  485SOL    OW  1453   0.581   2.786   0.952
  485SOL    HW1 1454   0.556   2.878   0.952
  485SOL    HW2 1455   0.659   2.783   0.897
  486SOL    OW  1456   0.601   2.816   0.246
  486SOL    HW1 1457   0.594   2.908   0.219
  486SOL    HW2 1458   0.684   2.812   0.294
  487SOL    OW  1459   3.573   2.760   0.154
  487SOL    HW1 1460   3.584   2.837   0.210
  487SOL    HW2 1461   3.651   2.708   0.168
  488SOL    OW  1462   0.343   2.737   0.819
  488SOL    HW1 1463   0.285   2.678   0.867
  488SOL    HW2 1464   0.423   2.738   0.871
  489SOL    OW  1465   0.366   2.777   0.376
  489SOL    HW1 1466   0.403   2.727   0.449
  489SOL    HW2 1467   0.442   2.810   0.328
  490SOL    OW  1468   0.833   2.772   0.386
  490SOL    HW1 1469   0.895   2.843   0.403
  490SOL    HW2 1470   0.883   2.706   0.339
  491SOL    OW  1471   0.797   2.768   0.802
  491SOL    HW1 1472   0.836   2.724   0.878
  491SOL    HW2 1473   0.858   2.839   0.782
  492SOL    OW  1474   0.179   2.569   0.978
  492SOL    HW1 1475   0.117   2.638   0.999
  492SOL    HW2 1476   0.229   2.556   1.058
  493SOL    OW  1477   0.205   2.622   0.220
  493SOL    HW1 1478   0.170   2.553   0.276
  493SOL    HW2 1479   0.260   2.675   0.277
  494SOL    OW  1480   0.369   2.509   0.029
  494SOL    HW1 1481   0.321   2.538   0.107
  494SOL    HW2 1482   0.320   2.546  -0.044
  495SOL    OW  1483   0.423   2.613   0.579
  495SOL    HW1 1484   0.390   2.647   0.662
  495SOL    HW2 1485   0.518   2.629   0.582
  496SOL    OW  1486   0.950   2.610   0.211
  496SOL    HW1 1487   0.903   2.564   0.142
  496SOL    HW2 1488   1.018   2.659   0.164
  497SOL    OW  1489   0.912   2.617   1.004
  497SOL    HW1 1490   0.930   2.544   0.945
  497SOL    HW2 1491   0.996   2.664   1.010
  498SOL    OW  1492   0.601   2.664   0.029
  498SOL    HW1 1493   0.604   2.719   0.107
  498SOL    HW2 1494   0.518   2.616   0.036
  499SOL    OW  1495   0.697   2.626   0.582
  499SOL    HW1 1496   0.733   2.650   0.667
  499SOL    HW2 1497   0.739   2.685   0.520
  500SOL    OW  1498   3.553   2.723   1.052
  500SOL    HW1 1499   3.581   2.726   1.143
  500SOL    HW2 1500   3.546   2.815   1.026
  501SOL    OW  1501   0.816   2.516   0.012
  501SOL    HW1 1502   0.745   2.580   0.010
  501SOL    HW2 1503   0.873   2.541  -0.059
  502SOL    OW  1504   0.372   2.237   1.177
  502SOL    HW1 1505   0.375   2.332   1.193
  502SOL    HW2 1506   0.463   2.209   1.179
  503SOL    OW  1507   0.292   2.374   0.592
  503SOL    HW1 1508   0.232   2.382   0.517
  503SOL    HW2 1509   0.336   2.459   0.595
  504SOL    OW  1510   0.849   2.374   0.567
  504SOL    HW1 1511   0.790   2.449   0.573
  504SOL    HW2 1512   0.902   2.379   0.647
  505SOL    OW  1513   1.007   2.439   0.806
  505SOL    HW1 1514   1.009   2.351   0.844
  505SOL    HW2 1515   1.094   2.450   0.767
  506SOL    OW  1516   1.017   2.373   0.334
  506SOL    HW1 1517   0.976   2.371   0.420
  506SOL    HW2 1518   0.980   2.451   0.291
  507SOL    OW  1519   0.115   2.383   1.605
  507SOL    HW1 1520   0.020   2.375   1.607
  507SOL    HW2 1521   0.145   2.306   1.556
  508SOL    OW  1522   0.331   3.456   1.189
  508SOL    HW1 1523   0.368   3.544   1.185
  508SOL    HW2 1524   0.405   3.399   1.209
  509SOL    OW  1525   0.835   3.425   1.175
  509SOL    HW1 1526   0.829   3.520   1.188
  509SOL    HW2 1527   0.900   3.415   1.106
  510SOL    OW  1528   0.197   3.344   2.219
  510SOL    HW1 1529   0.164   3.411   2.159
  510SOL    HW2 1530   0.249   3.393   2.282
  511SOL    OW  1531   0.186   3.368   1.412
  511SOL    HW1 1532   0.247   3.339   1.480
  511SOL    HW2 1533   0.240   3.418   1.350
  512SOL    OW  1534   0.483   3.375   1.824
  512SOL    HW1 1535   0.412   3.439   1.816
  512SOL    HW2 1536   0.457   3.320   1.899
  513SOL    OW  1537   0.761   3.314   1.805
  513SOL    HW1 1538   0.666   3.322   1.810
  513SOL    HW2 1539   0.793   3.404   1.793
  514SOL    OW  1540   1.026   3.555   1.572
  514SOL    HW1 1541   0.994   3.624   1.514
  514SOL    HW2 1542   1.003   3.473   1.529
  515SOL    OW  1543   0.867   3.159   2.020
  515SOL    HW1 1544   0.848   3.196   1.934
  515SOL    HW2 1545   0.877   3.235   2.078
  516SOL    OW  1546   3.559   3.209   2.291
  516SOL    HW1 1547   3.555   3.212   2.387
  516SOL    HW2 1548   3.645   3.248   2.269
  517SOL    OW  1549   0.388   3.273   1.597
  517SOL    HW1 1550   0.444   3.305   1.668
  517SOL    HW2 1551   0.334   3.205   1.637
  518SOL    OW  1552   0.383   3.205   2.035
  518SOL    HW1 1553   0.319   3.251   2.089
  518SOL    HW2 1554   0.449   3.175   2.097
  519SOL    OW  1555   0.574   3.286   1.168
  519SOL    HW1 1556   0.587   3.252   1.257
  519SOL    HW2 1557   0.649   3.342   1.152
  520SOL    OW  1558   0.962   2.931   1.909
  520SOL    HW1 1559   0.950   2.933   1.814
  520SOL    HW2 1560   0.940   3.019   1.938
  521SOL    OW  1561   0.967   3.342   1.417
  521SOL    HW1 1562   0.914   3.281   1.467
  521SOL    HW2 1563   0.909   3.375   1.348
  522SOL    OW  1564   3.547   3.237   1.364
  522SOL    HW1 1565   3.477   3.293   1.399
  522SOL    HW2 1566   3.627   3.288   1.377
  523SOL    OW  1567   0.834   3.169   1.577
  523SOL    HW1 1568   0.748   3.158   1.536
  523SOL    HW2 1569   0.817   3.219   1.656
  524SOL    OW  1570   0.623   3.111   2.157
  524SOL    HW1 1571   0.626   3.149   2.245
  524SOL    HW2 1572   0.707   3.133   2.118
  525SOL    OW  1573   0.012   2.727   1.328
  525SOL    HW1 1574   0.016   2.813   1.370
  525SOL    HW2 1575   0.089   2.680   1.360
  526SOL    OW  1576   3.574   2.983   2.092
  526SOL    HW1 1577   3.568   3.051   2.159
  526SOL    HW2 1578   3.657   3.001   2.046
  527SOL    OW  1579   0.232   3.060   1.643
  527SOL    HW1 1580   0.167   3.027   1.580
  527SOL    HW2 1581   0.186   3.059   1.727
  528SOL    OW  1582   0.200   3.002   1.929
  528SOL    HW1 1583   0.260   3.070   1.961
  528SOL    HW2 1584   0.252   2.921   1.933
  529SOL    OW  1585   0.984   2.952   1.630
  529SOL    HW1 1586   0.948   3.033   1.595
  529SOL    HW2 1587   1.075   2.951   1.599
  530SOL    OW  1588   1.547   3.217   2.020
  530SOL    HW1 1589   1.492   3.273   2.075
  530SOL    HW2 1590   1.623   3.197   2.075
  531SOL    OW  1591   0.550   2.840   2.123
  531SOL    HW1 1592   0.563   2.935   2.128
  531SOL    HW2 1593   0.567   2.809   2.212
  532SOL    OW  1594   0.600   3.159   1.437
  532SOL    HW1 1595   0.526   3.184   1.492
  532SOL    HW2 1596   0.601   3.064   1.439
  533SOL    OW  1597   3.379   2.609   1.404
  533SOL    HW1 1598   3.325   2.580   1.331
  533SOL    HW2 1599   3.449   2.659   1.364
  534SOL    OW  1600   0.338   2.768   1.976
  534SOL    HW1 1601   0.286   2.711   2.034
  534SOL    HW2 1602   0.400   2.811   2.035
  535SOL    OW  1603   0.369   2.794   1.581
  535SOL    HW1 1604   0.314   2.869   1.603
  535SOL    HW2 1605   0.439   2.830   1.527
  536SOL    OW  1606   0.735   2.609   1.814
  536SOL    HW1 1607   0.641   2.598   1.822
  536SOL    HW2 1608   0.761   2.655   1.894
  537SOL    OW  1609   0.804   2.750   2.044
  537SOL    HW1 1610   0.723   2.783   2.083
  537SOL    HW2 1611   0.852   2.828   2.018
  538SOL    OW  1612   0.204   2.640   2.159
  538SOL    HW1 1613   0.112   2.665   2.170
  538SOL    HW2 1614   0.234   2.617   2.246
  539SOL    OW  1615   0.239   2.601   1.433
  539SOL    HW1 1616   0.214   2.537   1.500
  539SOL    HW2 1617   0.279   2.673   1.481
  540SOL    OW  1618   0.356   2.523   1.189
  540SOL    HW1 1619   0.331   2.551   1.277
  540SOL    HW2 1620   0.433   2.576   1.169
  541SOL    OW  1621   0.455   2.607   1.794
  541SOL    HW1 1622   0.439   2.667   1.722
  541SOL    HW2 1623   0.420   2.652   1.871
  542SOL    OW  1624   0.961   2.624   1.427
  542SOL    HW1 1625   0.909   2.674   1.491
  542SOL    HW2 1626   1.039   2.679   1.412
  543SOL    OW  1627   0.972   2.590   2.185
  543SOL    HW1 1628   0.921   2.652   2.133
  543SOL    HW2 1629   1.043   2.643   2.221
  544SOL    OW  1630   0.600   2.869   1.437
  544SOL    HW1 1631   0.672   2.844   1.494
  544SOL    HW2 1632   0.604   2.808   1.364
  545SOL    OW  1633   0.793   2.761   1.593
  545SOL    HW1 1634   0.862   2.825   1.612
  545SOL    HW2 1635   0.778   2.716   1.676
  546SOL    OW  1636   3.583   2.749   2.235
  546SOL    HW1 1637   3.573   2.764   2.329
  546SOL    HW2 1638   3.599   2.836   2.198
  547SOL    OW  1639   0.619   2.669   1.221
  547SOL    HW1 1640   0.631   2.708   1.134
  547SOL    HW2 1641   0.692   2.608   1.231
  548SOL    OW  1642   0.138   2.376   2.043
  548SOL    HW1 1643   0.167   2.452   2.094
  548SOL    HW2 1644   0.201   2.370   1.971
  549SOL    OW  1645   0.323   2.369   1.816
  549SOL    HW1 1646   0.259   2.377   1.746
  549SOL    HW2 1647   0.359   2.457   1.828
  550SOL    OW  1648   0.885   2.379   1.779
  550SOL    HW1 1649   0.838   2.462   1.790
  550SOL    HW2 1650   0.936   2.370   1.860
  551SOL    OW  1651   1.032   2.347   2.015
  551SOL    HW1 1652   1.013   2.414   2.080
  551SOL    HW2 1653   1.127   2.349   2.004
  552SOL    OW  1654   1.063   2.387   1.579
  552SOL    HW1 1655   1.000   2.377   1.651
  552SOL    HW2 1656   1.036   2.468   1.535
  553SOL    OW  1657   0.132   2.406   2.797
  553SOL    HW1 1658   0.040   2.419   2.773
  553SOL    HW2 1659   0.156   2.324   2.753
  554SOL    OW  1660   0.359   3.453   2.419
  554SOL    HW1 1661   0.371   3.547   2.404
  554SOL    HW2 1662   0.445   3.415   2.402
  555SOL    OW  1663   0.863   3.465   2.423
  555SOL    HW1 1664   0.818   3.546   2.398
  555SOL    HW2 1665   0.901   3.434   2.341
  556SOL    OW  1666   0.094   3.601   3.250
  556SOL    HW1 1667   0.144   3.666   3.300
  556SOL    HW2 1668   0.119   3.517   3.288
  557SOL    OW  1669   0.196   3.380   2.632
  557SOL    HW1 1670   0.241   3.322   2.694
  557SOL    HW2 1671   0.263   3.401   2.567
  558SOL    OW  1672   0.449   3.410   3.013
  558SOL    HW1 1673   0.383   3.479   3.014
  558SOL    HW2 1674   0.412   3.340   3.067
  559SOL    OW  1675   0.725   3.371   2.992
  559SOL    HW1 1676   0.636   3.400   3.012
  559SOL    HW2 1677   0.777   3.452   2.992
  560SOL    OW  1678   1.016   3.359   2.629
  560SOL    HW1 1679   1.060   3.432   2.673
  560SOL    HW2 1680   0.963   3.400   2.561
  561SOL    OW  1681   0.964   3.360   3.382
  561SOL    HW1 1682   1.011   3.435   3.346
  561SOL    HW2 1683   1.033   3.301   3.413
  562SOL    OW  1684   3.567   3.227   3.447
  562SOL    HW1 1685   3.574   3.213   3.542
  562SOL    HW2 1686   3.640   3.285   3.426
  563SOL    OW  1687   0.375   3.232   2.795
  563SOL    HW1 1688   0.389   3.286   2.873
  563SOL    HW2 1689   0.316   3.162   2.825
  564SOL    OW  1690   0.203   3.390   3.378
  564SOL    HW1 1691   0.255   3.400   3.458
  564SOL    HW2 1692   0.260   3.340   3.319
  565SOL    OW  1693   0.575   3.299   2.391
  565SOL    HW1 1694   0.558   3.242   2.467
  565SOL    HW2 1695   0.660   3.338   2.410
  566SOL    OW  1696   0.810   3.189   3.196
  566SOL    HW1 1697   0.779   3.252   3.132
  566SOL    HW2 1698   0.870   3.239   3.252
  567SOL    OW  1699   0.824   3.204   2.801
  567SOL    HW1 1700   0.791   3.261   2.871
  567SOL    HW2 1701   0.874   3.263   2.744
  568SOL    OW  1702   0.021   2.953   2.671
  568SOL    HW1 1703  -0.049   2.962   2.736
  568SOL    HW2 1704   0.034   3.042   2.638
  569SOL    OW  1705   0.596   3.160   2.627
  569SOL    HW1 1706   0.514   3.178   2.672
  569SOL    HW2 1707   0.664   3.180   2.691
  570SOL    OW  1708   0.571   3.096   3.340
  570SOL    HW1 1709   0.586   3.154   3.414
  570SOL    HW2 1710   0.652   3.097   3.290
  571SOL    OW  1711   0.253   2.998   2.847
  571SOL    HW1 1712   0.172   2.999   2.796
  571SOL    HW2 1713   0.298   2.919   2.818
  572SOL    OW  1714   3.587   2.973   3.316
  572SOL    HW1 1715   3.568   3.062   3.345
  572SOL    HW2 1716   3.673   2.980   3.272
  573SOL    OW  1717   0.192   2.996   3.115
  573SOL    HW1 1718   0.249   2.925   3.145
  573SOL    HW2 1719   0.209   3.003   3.021
  574SOL    OW  1720   0.353   3.219   3.192
  574SOL    HW1 1721   0.432   3.174   3.221
  574SOL    HW2 1722   0.294   3.148   3.166
  575SOL    OW  1723   0.960   2.985   2.882
  575SOL    HW1 1724   0.907   3.063   2.862
  575SOL    HW2 1725   1.037   2.993   2.825
  576SOL    OW  1726   0.932   2.954   3.152
  576SOL    HW1 1727   0.886   3.037   3.168
  576SOL    HW2 1728   0.952   2.955   3.059
  577SOL    OW  1729   0.569   2.705   3.600
  577SOL    HW1 1730   0.652   2.658   3.592
  577SOL    HW2 1731   0.578   2.757   3.680
  578SOL    OW  1732   0.603   2.873   2.631
  578SOL    HW1 1733   0.618   2.966   2.611
  578SOL    HW2 1734   0.683   2.845   2.675
  579SOL    OW  1735   3.554   2.740   2.526
  579SOL    HW1 1736   3.568   2.821   2.575
  579SOL    HW2 1737   3.623   2.681   2.555
  580SOL    OW  1738   0.361   2.788   3.165
  580SOL    HW1 1739   0.305   2.727   3.213
  580SOL    HW2 1740   0.438   2.800   3.220
  581SOL    OW  1741   0.391   2.750   2.760
  581SOL    HW1 1742   0.428   2.704   2.836
  581SOL    HW2 1743   0.466   2.798   2.723
  582SOL    OW  1744   0.968   2.590   2.611
  582SOL    HW1 1745   1.045   2.637   2.578
  582SOL    HW2 1746   1.004   2.512   2.654
  583SOL    OW  1747   0.577   2.795   3.343
  583SOL    HW1 1748   0.561   2.760   3.431
  583SOL    HW2 1749   0.606   2.885   3.358
  584SOL    OW  1750   0.216   2.618   3.367
  584SOL    HW1 1751   0.138   2.665   3.397
  584SOL    HW2 1752   0.262   2.593   3.447
  585SOL    OW  1753   0.161   2.608   2.625
  585SOL    HW1 1754   0.149   2.541   2.692
  585SOL    HW2 1755   0.211   2.677   2.669
  586SOL    OW  1756   0.333   2.567   2.388
  586SOL    HW1 1757   0.288   2.597   2.468
  586SOL    HW2 1758   0.414   2.618   2.386
  587SOL    OW  1759   0.465   2.620   2.988
  587SOL    HW1 1760   0.435   2.690   3.046
  587SOL    HW2 1761   0.560   2.616   3.002
  588SOL    OW  1762   0.739   2.595   2.984
  588SOL    HW1 1763   0.749   2.645   2.903
  588SOL    HW2 1764   0.771   2.652   3.053
  589SOL    OW  1765   0.813   2.718   3.226
  589SOL    HW1 1766   0.726   2.733   3.264
  589SOL    HW2 1767   0.851   2.805   3.217
  590SOL    OW  1768   0.587   2.703   2.397
  590SOL    HW1 1769   0.574   2.727   2.489
  590SOL    HW2 1770   0.658   2.639   2.398
  591SOL    OW  1771   0.808   2.756   2.779
  591SOL    HW1 1772   0.846   2.838   2.812
  591SOL    HW2 1773   0.881   2.710   2.739
  592SOL    OW  1774   0.001   2.764   3.477
  592SOL    HW1 1775   0.001   2.788   3.569
  592SOL    HW2 1776  -0.008   2.848   3.430
  593SOL    OW  1777   0.821   2.530   2.400
  593SOL    HW1 1778   0.877   2.561   2.329
  593SOL    HW2 1779   0.868   2.554   2.480
  594SOL    OW  1780   0.101   2.406   3.203
  594SOL    HW1 1781   0.116   2.491   3.245
  594SOL    HW2 1782   0.168   2.400   3.136
  595SOL    OW  1783   0.308   2.396   3.014
  595SOL    HW1 1784   0.244   2.433   2.952
  595SOL    HW2 1785   0.380   2.459   3.014
  596SOL    OW  1786   0.946   2.399   2.985
  596SOL    HW1 1787   0.999   2.416   3.062
  596SOL    HW2 1788   0.871   2.459   2.994
  597SOL    OW  1789   1.075   2.380   3.232
  597SOL    HW1 1790   1.046   2.456   3.283
  597SOL    HW2 1791   1.169   2.394   3.218
  598SOL    OW  1792   1.088   2.366   2.723
  598SOL    HW1 1793   1.051   2.289   2.680
  598SOL    HW2 1794   1.049   2.365   2.810
  599SOL    OW  1795   0.154   2.410   3.930
  599SOL    HW1 1796   0.061   2.406   3.955
  599SOL    HW2 1797   0.166   2.335   3.872
  600SOL    OW  1798   0.358   3.397   3.595
  600SOL    HW1 1799   0.373   3.491   3.609
  600SOL    HW2 1800   0.446   3.359   3.590
  601SOL    OW  1801   0.799   3.428   3.589
  601SOL    HW1 1802   0.861   3.408   3.519
  601SOL    HW2 1803   0.784   3.522   3.582
  602SOL    OW  1804   0.183   3.354   4.563
  602SOL    HW1 1805   0.163   3.431   4.509
  602SOL    HW2 1806   0.217   3.390   4.645
  603SOL    OW  1807   0.196   3.353   3.824
  603SOL    HW1 1808   0.249   3.307   3.888
  603SOL    HW2 1809   0.250   3.355   3.745
  604SOL    OW  1810   0.422   3.391   4.233
  604SOL    HW1 1811   0.359   3.463   4.240
  604SOL    HW2 1812   0.406   3.337   4.310
  605SOL    OW  1813   0.688   3.363   4.208
  605SOL    HW1 1814   0.593   3.356   4.211
  605SOL    HW2 1815   0.705   3.457   4.220
  606SOL    OW  1816   1.439   3.428   3.810
  606SOL    HW1 1817   1.489   3.356   3.848
  606SOL    HW2 1818   1.487   3.452   3.731
  607SOL    OW  1819   0.942   3.394   4.589
  607SOL    HW1 1820   0.971   3.467   4.534
  607SOL    HW2 1821   1.020   3.339   4.598
  608SOL    OW  1822   3.542   3.251   4.655
  608SOL    HW1 1823   3.548   3.238   4.750
  608SOL    HW2 1824   3.627   3.287   4.630
  609SOL    OW  1825   0.346   3.257   4.012
  609SOL    HW1 1826   0.374   3.305   4.090
  609SOL    HW2 1827   0.315   3.173   4.046
  610SOL    OW  1828   0.359   3.210   4.430
  610SOL    HW1 1829   0.309   3.252   4.499
  610SOL    HW2 1830   0.424   3.156   4.476
  611SOL    OW  1831   0.608   3.226   3.574
  611SOL    HW1 1832   0.608   3.199   3.666
  611SOL    HW2 1833   0.680   3.289   3.567
  612SOL    OW  1834   0.791   3.219   4.443
  612SOL    HW1 1835   0.773   3.272   4.366
  612SOL    HW2 1836   0.848   3.273   4.497
  613SOL    OW  1837   0.813   3.221   3.971
  613SOL    HW1 1838   0.856   3.142   4.005
  613SOL    HW2 1839   0.770   3.260   4.047
  614SOL    OW  1840   3.562   3.216   3.739
  614SOL    HW1 1841   3.482   3.256   3.774
  614SOL    HW2 1842   3.633   3.276   3.767
  615SOL    OW  1843   0.586   3.134   3.828
  615SOL    HW1 1844   0.521   3.160   3.894
  615SOL    HW2 1845   0.670   3.159   3.867
  616SOL    OW  1846   0.573   3.112   4.595
  616SOL    HW1 1847   0.582   3.148   4.683
  616SOL    HW2 1848   0.647   3.147   4.547
  617SOL    OW  1849   3.585   3.017   3.924
  617SOL    HW1 1850   3.576   3.089   3.861
  617SOL    HW2 1851   3.670   3.032   3.965
  618SOL    OW  1852   3.558   2.999   4.497
  618SOL    HW1 1853   3.544   3.084   4.537
  618SOL    HW2 1854   3.646   3.005   4.458
  619SOL    OW  1855   0.229   3.023   4.113
  619SOL    HW1 1856   0.234   3.022   4.209
  619SOL    HW2 1857   0.244   2.932   4.087
  620SOL    OW  1858   0.210   2.997   4.374
  620SOL    HW1 1859   0.272   3.069   4.387
  620SOL    HW2 1860   0.264   2.918   4.379
  621SOL    OW  1861   0.937   3.002   4.095
  621SOL    HW1 1862   0.942   2.971   4.185
  621SOL    HW2 1863   1.023   3.038   4.076
  622SOL    OW  1864   0.951   2.995   4.365
  622SOL    HW1 1865   0.905   3.069   4.403
  622SOL    HW2 1866   1.026   2.980   4.423
  623SOL    OW  1867   0.564   2.829   4.557
  623SOL    HW1 1868   0.566   2.921   4.585
  623SOL    HW2 1869   0.587   2.780   4.636
  624SOL    OW  1870   0.572   2.851   3.828
  624SOL    HW1 1871   0.573   2.946   3.829
  624SOL    HW2 1872   0.651   2.825   3.876
  625SOL    OW  1873   3.584   2.805   3.744
  625SOL    HW1 1874   3.586   2.885   3.796
  625SOL    HW2 1875   3.665   2.759   3.766
  626SOL    OW  1876   0.360   2.738   4.397
  626SOL    HW1 1877   0.298   2.698   4.457
  626SOL    HW2 1878   0.433   2.766   4.452
  627SOL    OW  1879   0.341   2.783   3.983
  627SOL    HW1 1880   0.374   2.718   4.045
  627SOL    HW2 1881   0.418   2.805   3.929
  628SOL    OW  1882   0.793   2.778   3.996
  628SOL    HW1 1883   0.858   2.732   3.944
  628SOL    HW2 1884   0.838   2.858   4.025
  629SOL    OW  1885   0.806   2.766   4.441
  629SOL    HW1 1886   0.723   2.785   4.484
  629SOL    HW2 1887   0.841   2.852   4.417
  630SOL    OW  1888   0.169   2.625   4.552
  630SOL    HW1 1889   0.100   2.673   4.597
  630SOL    HW2 1890   0.233   2.606   4.620
  631SOL    OW  1891   0.208   2.641   3.786
  631SOL    HW1 1892   0.160   2.577   3.839
  631SOL    HW2 1893   0.272   2.679   3.846
  632SOL    OW  1894   0.962   2.562   3.401
  632SOL    HW1 1895   1.036   2.622   3.402
  632SOL    HW2 1896   0.902   2.599   3.336
  633SOL    OW  1897   0.496   2.631   4.177
  633SOL    HW1 1898   0.461   2.685   4.248
  633SOL    HW2 1899   0.582   2.603   4.209
  634SOL    OW  1900   1.349   2.352   3.987
  634SOL    HW1 1901   1.377   2.267   3.952
  634SOL    HW2 1902   1.254   2.348   3.986
  635SOL    OW  1903   0.962   2.583   4.599
  635SOL    HW1 1904   0.921   2.659   4.557
  635SOL    HW2 1905   1.048   2.614   4.626
  636SOL    OW  1906   0.364   2.534   3.589
  636SOL    HW1 1907   0.316   2.557   3.669
  636SOL    HW2 1908   0.438   2.594   3.588
  637SOL    OW  1909   0.760   2.576   4.206
  637SOL    HW1 1910   0.791   2.617   4.286
  637SOL    HW2 1911   0.763   2.645   4.140
  638SOL    OW  1912   3.535   2.791   4.668
  638SOL    HW1 1913   3.566   2.810   4.756
  638SOL    HW2 1914   3.549   2.873   4.619
  639SOL    OW  1915   0.791   2.514   3.608
  639SOL    HW1 1916   0.850   2.524   3.534
  639SOL    HW2 1917   0.837   2.554   3.681
  640SOL    OW  1918   0.166   2.411   4.378
  640SOL    HW1 1919   0.159   2.500   4.412
  640SOL    HW2 1920   0.207   2.421   4.292
  641SOL    OW  1921   0.320   2.404   4.132
  641SOL    HW1 1922   0.259   2.407   4.058
  641SOL    HW2 1923   0.356   2.492   4.138
  642SOL    OW  1924   0.923   2.346   4.184
  642SOL    HW1 1925   0.867   2.423   4.189
  642SOL    HW2 1926   0.974   2.348   4.265
  643SOL    OW  1927   1.050   2.384   4.440
  643SOL    HW1 1928   1.020   2.462   4.487
  643SOL    HW2 1929   1.017   2.311   4.491
  644SOL    OW  1930   1.047   2.374   3.938
  644SOL    HW1 1931   1.006   2.381   4.024
  644SOL    HW2 1932   1.018   2.289   3.904
  645SOL    OW  1933   0.117   2.423   5.138
  645SOL    HW1 1934   0.152   2.350   5.087
  645SOL    HW2 1935   0.022   2.416   5.127
  646SOL    OW  1936   0.299   3.451   4.798
  646SOL    HW1 1937   0.323   3.543   4.787
  646SOL    HW2 1938   0.383   3.405   4.805
  647SOL    OW  1939   0.773   3.463   4.784
  647SOL    HW1 1940   0.786   3.557   4.792
  647SOL    HW2 1941   0.831   3.436   4.713
  648SOL    OW  1942   0.174   3.385   5.805
  648SOL    HW1 1943   0.168   3.458   5.744
  648SOL    HW2 1944   0.234   3.415   5.873
  649SOL    OW  1945   0.160   3.341   5.000
  649SOL    HW1 1946   0.221   3.304   5.065
  649SOL    HW2 1947   0.217   3.383   4.936
  650SOL    OW  1948   0.427   3.366   5.437
  650SOL    HW1 1949   0.381   3.448   5.457
  650SOL    HW2 1950   0.399   3.306   5.507
  651SOL    OW  1951   0.731   3.329   5.405
  651SOL    HW1 1952   0.636   3.333   5.397
  651SOL    HW2 1953   0.760   3.420   5.396
  652SOL    OW  1954   0.951   3.368   4.997
  652SOL    HW1 1955   1.031   3.327   4.964
  652SOL    HW2 1956   0.901   3.390   4.918
  653SOL    OW  1957   0.822   3.442   0.028
  653SOL    HW1 1958   0.834   3.537   0.025
  653SOL    HW2 1959   0.867   3.409  -0.049
  654SOL    OW  1960   3.567   3.233   5.885
  654SOL    HW1 1961   3.570   3.221   5.980
  654SOL    HW2 1962   3.648   3.279   5.863
  655SOL    OW  1963   0.322   3.262   5.181
  655SOL    HW1 1964   0.354   3.310   5.258
  655SOL    HW2 1965   0.293   3.178   5.216
  656SOL    OW  1966   0.350   3.208   5.665
  656SOL    HW1 1967   0.299   3.271   5.715
  656SOL    HW2 1968   0.417   3.178   5.727
  657SOL    OW  1969   0.533   3.321   4.807
  657SOL    HW1 1970   0.537   3.276   4.892
  657SOL    HW2 1971   0.604   3.386   4.811
  658SOL    OW  1972   0.788   3.206   5.653
  658SOL    HW1 1973   0.776   3.248   5.568
  658SOL    HW2 1974   0.844   3.266   5.702
  659SOL    OW  1975   0.794   3.208   5.166
  659SOL    HW1 1976   0.776   3.250   5.251
  659SOL    HW2 1977   0.840   3.275   5.116
  660SOL    OW  1978   3.550   3.196   4.926
  660SOL    HW1 1979   3.483   3.244   4.975
  660SOL    HW2 1980   3.632   3.239   4.948
  661SOL    OW  1981   0.558   3.158   5.047
  661SOL    HW1 1982   0.493   3.187   5.111
  661SOL    HW2 1983   0.642   3.177   5.089
  662SOL    OW  1984   0.579   3.147   5.809
  662SOL    HW1 1985   0.587   3.199   5.889
  662SOL    HW2 1986   0.660   3.164   5.761
  663SOL    OW  1987   3.573   2.760   4.951
  663SOL    HW1 1988   3.649   2.705   4.971
  663SOL    HW2 1989   3.577   2.831   5.015
  664SOL    OW  1990   0.006   2.990   5.734
  664SOL    HW1 1991  -0.002   3.070   5.785
  664SOL    HW2 1992   0.075   3.008   5.671
  665SOL    OW  1993   0.218   3.034   5.281
  665SOL    HW1 1994   0.193   3.023   5.372
  665SOL    HW2 1995   0.256   2.950   5.256
  666SOL    OW  1996   0.203   2.999   5.552
  666SOL    HW1 1997   0.260   3.074   5.568
  666SOL    HW2 1998   0.257   2.923   5.574
  667SOL    OW  1999   0.967   3.001   5.219
  667SOL    HW1 2000   0.910   3.078   5.210
  667SOL    HW2 2001   0.985   2.996   5.313
  668SOL    OW  2002   0.940   2.993   5.518
  668SOL    HW1 2003   0.902   3.067   5.566
  668SOL    HW2 2004   1.013   2.964   5.574
  669SOL    OW  2005   0.571   2.878   5.794
  669SOL    HW1 2006   0.561   2.972   5.807
  669SOL    HW2 2007   0.575   2.842   5.882
  670SOL    OW  2008   0.768   2.797   5.180
  670SOL    HW1 2009   0.807   2.729   5.125
  670SOL    HW2 2010   0.840   2.857   5.197
  671SOL    OW  2011   0.359   2.580   4.764
  671SOL    HW1 2012   0.305   2.605   4.839
  671SOL    HW2 2013   0.369   2.486   4.771
  672SOL    OW  2014   0.370   2.770   5.624
  672SOL    HW1 2015   0.314   2.712   5.675
  672SOL    HW2 2016   0.439   2.798   5.685
  673SOL    OW  2017   0.807   2.510   4.813
  673SOL    HW1 2018   0.863   2.519   4.736
  673SOL    HW2 2019   0.736   2.572   4.798
  674SOL    OW  2020   1.002   2.374   5.168
  674SOL    HW1 2021   0.936   2.365   5.237
  674SOL    HW2 2022   0.971   2.446   5.114
  675SOL    OW  2023   0.777   2.777   5.627
  675SOL    HW1 2024   0.712   2.817   5.685
  675SOL    HW2 2025   0.819   2.851   5.584
  676SOL    OW  2026   0.250   2.600   5.805
  676SOL    HW1 2027   0.172   2.654   5.822
  676SOL    HW2 2028   0.217   2.525   5.755
  677SOL    OW  2029   0.432   2.648   5.390
  677SOL    HW1 2030   0.527   2.639   5.397
  677SOL    HW2 2031   0.408   2.701   5.466
  678SOL    OW  2032   0.927   2.612   5.044
  678SOL    HW1 2033   1.002   2.663   5.011
  678SOL    HW2 2034   0.880   2.586   4.965
  679SOL    OW  2035   0.608   2.686   4.782
  679SOL    HW1 2036   0.621   2.753   4.850
  679SOL    HW2 2037   0.516   2.661   4.791
  680SOL    OW  2038   0.361   2.295   4.785
  680SOL    HW1 2039   0.306   2.274   4.860
  680SOL    HW2 2040   0.426   2.225   4.783
  681SOL    OW  2041   0.928   2.601   5.787
  681SOL    HW1 2042   0.872   2.660   5.737
  681SOL    HW2 2043   1.009   2.650   5.800
  682SOL    OW  2044   0.353   2.797   5.180
  682SOL    HW1 2045   0.421   2.826   5.118
  682SOL    HW2 2046   0.400   2.744   5.244
  683SOL    OW  2047   0.707   2.626   5.392
  683SOL    HW1 2048   0.718   2.684   5.317
  683SOL    HW2 2049   0.731   2.680   5.468
  684SOL    OW  2050   0.026   2.751   5.890
  684SOL    HW1 2051   0.001   2.759   5.982
  684SOL    HW2 2052   0.017   2.840   5.855
  685SOL    OW  2053   0.573   2.883   5.010
  685SOL    HW1 2054   0.562   2.978   5.004
  685SOL    HW2 2055   0.653   2.871   5.061
  686SOL    OW  2056   0.122   2.394   5.646
  686SOL    HW1 2057   0.029   2.379   5.634
  686SOL    HW2 2058   0.154   2.418   5.558
  687SOL    OW  2059   0.252   2.425   5.404
  687SOL    HW1 2060   0.318   2.495   5.403
  687SOL    HW2 2061   0.205   2.436   5.322
  688SOL    OW  2062   0.828   2.377   5.395
  688SOL    HW1 2063   0.796   2.467   5.393
  688SOL    HW2 2064   0.895   2.377   5.465
  689SOL    OW  2065   0.986   2.369   5.639
  689SOL    HW1 2066   0.955   2.436   5.700
  689SOL    HW2 2067   1.079   2.386   5.630
  690SOL    OW  2068   1.182   2.073   5.001
  690SOL    HW1 2069   1.269   2.108   5.019
  690SOL    HW2 2070   1.182   1.987   5.044
  691SOL    OW  2071   1.314   3.577   0.427
  691SOL    HW1 2072   1.218   3.581   0.418
  691SOL    HW2 2073   1.342   3.517   0.358
  692SOL    OW  2074   1.551   1.040   0.012
  692SOL    HW1 2075   1.561   1.131  -0.016
  692SOL    HW2 2076   1.640   1.005   0.011
  693SOL    OW  2077   2.035   1.052   6.007
  693SOL    HW1 2078   2.034   1.148   6.010
  693SOL    HW2 2079   2.084   1.031   5.927
  694SOL    OW  2080   1.409   0.950   0.961
  694SOL    HW1 2081   1.370   1.037   0.958
  694SOL    HW2 2082   1.468   0.953   1.037
  695SOL    OW  2083   1.386   0.936   0.194
  695SOL    HW1 2084   1.461   0.899   0.240
  695SOL    HW2 2085   1.423   0.974   0.114
  696SOL    OW  2086   1.657   0.919   0.581
  696SOL    HW1 2087   1.595   0.992   0.579
  696SOL    HW2 2088   1.644   0.880   0.667
  697SOL    OW  2089   1.952   0.913   0.597
  697SOL    HW1 2090   1.974   0.878   0.511
  697SOL    HW2 2091   1.857   0.928   0.593
  698SOL    OW  2092   2.182   0.970   0.217
  698SOL    HW1 2093   2.212   1.053   0.254
  698SOL    HW2 2094   2.144   0.994   0.133
  699SOL    OW  2095   2.176   0.945   0.930
  699SOL    HW1 2096   2.192   1.029   0.887
  699SOL    HW2 2097   2.260   0.922   0.970
  700SOL    OW  2098   1.185   0.793   1.029
  700SOL    HW1 2099   1.188   0.780   1.124
  700SOL    HW2 2100   1.260   0.848   1.010
  701SOL    OW  2101   1.587   0.823   0.338
  701SOL    HW1 2102   1.595   0.846   0.431
  701SOL    HW2 2103   1.559   0.731   0.339
  702SOL    OW  2104   1.576   0.800   0.817
  702SOL    HW1 2105   1.519   0.848   0.877
  702SOL    HW2 2106   1.639   0.756   0.874
  703SOL    OW  2107   1.793   0.933   5.961
  703SOL    HW1 2108   1.795   0.890   6.046
  703SOL    HW2 2109   1.867   0.994   5.963
  704SOL    OW  2110   1.993   0.768   0.821
  704SOL    HW1 2111   1.984   0.831   0.750
  704SOL    HW2 2112   2.050   0.811   0.884
  705SOL    OW  2113   2.009   0.785   0.356
  705SOL    HW1 2114   2.053   0.857   0.312
  705SOL    HW2 2115   1.934   0.764   0.300
  706SOL    OW  2116   1.161   0.765   5.816
  706SOL    HW1 2117   1.239   0.815   5.791
  706SOL    HW2 2118   1.164   0.763   5.912
  707SOL    OW  2119   1.805   0.760   0.181
  707SOL    HW1 2120   1.812   0.664   0.187
  707SOL    HW2 2121   1.739   0.783   0.247
  708SOL    OW  2122   1.774   0.683   0.965
  708SOL    HW1 2123   1.773   0.730   1.048
  708SOL    HW2 2124   1.846   0.722   0.915
  709SOL    OW  2125   1.197   0.577   0.299
  709SOL    HW1 2126   1.198   0.645   0.232
  709SOL    HW2 2127   1.276   0.592   0.351
  710SOL    OW  2128   1.203   0.566   0.889
  710SOL    HW1 2129   1.210   0.643   0.945
  710SOL    HW2 2130   1.271   0.578   0.822
  711SOL    OW  2131   1.458   0.598   0.428
  711SOL    HW1 2132   1.449   0.608   0.523
  711SOL    HW2 2133   1.491   0.509   0.416
  712SOL    OW  2134   1.434   0.602   0.704
  712SOL    HW1 2135   1.478   0.679   0.740
  712SOL    HW2 2136   1.480   0.528   0.743
  713SOL    OW  2137   2.201   0.566   0.417
  713SOL    HW1 2138   2.205   0.559   0.513
  713SOL    HW2 2139   2.148   0.644   0.401
  714SOL    OW  2140   2.149   0.563   0.689
  714SOL    HW1 2141   2.095   0.638   0.712
  714SOL    HW2 2142   2.228   0.573   0.744
  715SOL    OW  2143   1.784   0.415   0.947
  715SOL    HW1 2144   1.775   0.508   0.969
  715SOL    HW2 2145   1.791   0.371   1.032
  716SOL    OW  2146   1.814   0.492   0.235
  716SOL    HW1 2147   1.867   0.442   0.298
  716SOL    HW2 2148   1.813   0.438   0.156
  717SOL    OW  2149   1.193   0.337   0.137
  717SOL    HW1 2150   1.187   0.410   0.199
  717SOL    HW2 2151   1.267   0.284   0.169
  718SOL    OW  2152   1.562   0.382   0.799
  718SOL    HW1 2153   1.511   0.315   0.846
  718SOL    HW2 2154   1.635   0.401   0.858
  719SOL    OW  2155   1.583   0.367   0.367
  719SOL    HW1 2156   1.615   0.317   0.442
  719SOL    HW2 2157   1.661   0.384   0.314
  720SOL    OW  2158   2.258   3.603   0.364
  720SOL    HW1 2159   2.227   3.588   0.453
  720SOL    HW2 2160   2.235   3.522   0.317
  721SOL    OW  2161   1.997   0.346   0.783
  721SOL    HW1 2162   1.919   0.374   0.831
  721SOL    HW2 2163   2.038   0.427   0.755
  722SOL    OW  2164   1.399   0.240   0.965
  722SOL    HW1 2165   1.314   0.282   0.978
  722SOL    HW2 2166   1.432   0.226   1.053
  723SOL    OW  2167   1.410   0.184   0.244
  723SOL    HW1 2168   1.396   0.105   0.296
  723SOL    HW2 2169   1.473   0.236   0.296
  724SOL    OW  2170   1.565   0.153   0.011
  724SOL    HW1 2171   1.515   0.164   0.092
  724SOL    HW2 2172   1.646   0.203   0.025
  725SOL    OW  2173   1.687   0.204   0.593
  725SOL    HW1 2174   1.668   0.259   0.669
  725SOL    HW2 2175   1.782   0.193   0.594
  726SOL    OW  2176   2.155   0.205   0.209
  726SOL    HW1 2177   2.235   0.254   0.188
  726SOL    HW2 2178   2.186   0.128   0.257
  727SOL    OW  2179   2.145   0.195   0.964
  727SOL    HW1 2180   2.085   0.257   0.924
  727SOL    HW2 2181   2.219   0.248   0.993
  728SOL    OW  2182   1.783   0.322   0.011
  728SOL    HW1 2183   1.865   0.274   0.001
  728SOL    HW2 2184   1.775   0.373  -0.069
  729SOL    OW  2185   2.013   0.355   0.396
  729SOL    HW1 2186   2.078   0.422   0.416
  729SOL    HW2 2187   2.056   0.297   0.333
  730SOL    OW  2188   1.145   0.348   1.047
  730SOL    HW1 2189   1.163   0.364   1.140
  730SOL    HW2 2190   1.174   0.428   1.003
  731SOL    OW  2191   1.987   0.116   0.018
  731SOL    HW1 2192   2.044   0.155   0.085
  731SOL    HW2 2193   2.033   0.131  -0.064
  732SOL    OW  2194   1.311   0.009   0.856
  732SOL    HW1 2195   1.338   0.089   0.902
  732SOL    HW2 2196   1.371   0.003   0.782
  733SOL    OW  2197   1.513   3.582   0.643
  733SOL    HW1 2198   1.459   3.584   0.564
  733SOL    HW2 2199   1.586   3.642   0.623
  734SOL    OW  2200   1.963   0.167   0.588
  734SOL    HW1 2201   1.993   0.227   0.520
  734SOL    HW2 2202   1.970   0.217   0.670
  735SOL    OW  2203   2.244   3.562   0.863
  735SOL    HW1 2204   2.208   3.637   0.911
  735SOL    HW2 2205   2.337   3.583   0.854
  736SOL    OW  2206   2.131   3.561   0.610
  736SOL    HW1 2207   2.075   3.635   0.586
  736SOL    HW2 2208   2.166   3.586   0.696
  737SOL    OW  2209   1.337   0.008   1.572
  737SOL    HW1 2210   1.244   0.010   1.595
  737SOL    HW2 2211   1.345  -0.066   1.510
  738SOL    OW  2212   1.576   1.004   1.177
  738SOL    HW1 2213   1.588   1.099   1.180
  738SOL    HW2 2214   1.664   0.968   1.184
  739SOL    OW  2215   2.015   1.023   1.174
  739SOL    HW1 2216   2.002   1.117   1.177
  739SOL    HW2 2217   2.051   1.006   1.087
  740SOL    OW  2218   1.420   0.978   2.153
  740SOL    HW1 2219   1.452   1.040   2.087
  740SOL    HW2 2220   1.480   0.988   2.227
  741SOL    OW  2221   1.410   0.981   1.398
  741SOL    HW1 2222   1.454   0.919   1.456
  741SOL    HW2 2223   1.471   0.993   1.325
  742SOL    OW  2224   1.626   0.978   1.782
  742SOL    HW1 2225   1.558   1.046   1.774
  742SOL    HW2 2226   1.593   0.920   1.851
  743SOL    OW  2227   1.900   0.978   1.773
  743SOL    HW1 2228   1.807   0.992   1.756
  743SOL    HW2 2229   1.940   1.064   1.762
  744SOL    OW  2230   2.154   0.968   1.397
  744SOL    HW1 2231   2.097   0.909   1.446
  744SOL    HW2 2232   2.118   0.969   1.308
  745SOL    OW  2233   2.165   0.976   2.152
  745SOL    HW1 2234   2.191   1.059   2.111
  745SOL    HW2 2235   2.097   0.941   2.094
  746SOL    OW  2236   1.180   0.831   2.231
  746SOL    HW1 2237   1.177   0.822   2.326
  746SOL    HW2 2238   1.262   0.878   2.214
  747SOL    OW  2239   1.531   0.814   1.574
  747SOL    HW1 2240   1.554   0.847   1.661
  747SOL    HW2 2241   1.477   0.737   1.590
  748SOL    OW  2242   1.566   0.810   2.002
  748SOL    HW1 2243   1.525   0.868   2.066
  748SOL    HW2 2244   1.646   0.781   2.045
  749SOL    OW  2245   1.793   0.853   1.184
  749SOL    HW1 2246   1.786   0.830   1.276
  749SOL    HW2 2247   1.869   0.912   1.180
  750SOL    OW  2248   1.987   0.836   1.980
  750SOL    HW1 2249   2.036   0.756   1.962
  750SOL    HW2 2250   1.968   0.872   1.893
  751SOL    OW  2251   1.755   0.727   1.429
  751SOL    HW1 2252   1.671   0.755   1.465
  751SOL    HW2 2253   1.820   0.770   1.485
  752SOL    OW  2254   1.183   0.802   1.326
  752SOL    HW1 2255   1.109   0.851   1.362
  752SOL    HW2 2256   1.257   0.863   1.332
  753SOL    OW  2257   1.777   0.432   1.435
  753SOL    HW1 2258   1.863   0.416   1.476
  753SOL    HW2 2259   1.784   0.520   1.398
  754SOL    OW  2260   1.804   0.883   2.407
  754SOL    HW1 2261   1.802   0.827   2.485
  754SOL    HW2 2262   1.892   0.921   2.407
  755SOL    OW  2263   1.400   0.594   1.667
  755SOL    HW1 2264   1.457   0.519   1.652
  755SOL    HW2 2265   1.396   0.601   1.763
  756SOL    OW  2266   1.182   0.578   2.102
  756SOL    HW1 2267   1.172   0.663   2.145
  756SOL    HW2 2268   1.250   0.591   2.036
  757SOL    OW  2269   1.547   0.381   1.568
  757SOL    HW1 2270   1.615   0.405   1.506
  757SOL    HW2 2271   1.591   0.326   1.633
  758SOL    OW  2272   1.388   0.613   1.929
  758SOL    HW1 2273   1.442   0.685   1.959
  758SOL    HW2 2274   1.435   0.534   1.955
  759SOL    OW  2275   1.985   0.809   1.559
  759SOL    HW1 2276   1.952   0.859   1.634
  759SOL    HW2 2277   2.032   0.736   1.600
  760SOL    OW  2278   2.116   0.598   1.676
  760SOL    HW1 2279   2.137   0.601   1.769
  760SOL    HW2 2280   2.200   0.610   1.632
  761SOL    OW  2281   1.782   0.747   2.148
  761SOL    HW1 2282   1.792   0.807   2.222
  761SOL    HW2 2283   1.856   0.768   2.091
  762SOL    OW  2284   1.999   0.378   1.571
  762SOL    HW1 2285   1.982   0.313   1.640
  762SOL    HW2 2286   2.031   0.455   1.618
  763SOL    OW  2287   1.176   0.377   1.330
  763SOL    HW1 2288   1.160   0.441   1.400
  763SOL    HW2 2289   1.256   0.332   1.357
  764SOL    OW  2290   1.546   0.412   2.010
  764SOL    HW1 2291   1.508   0.345   2.068
  764SOL    HW2 2292   1.614   0.453   2.064
  765SOL    OW  2293   1.900   0.202   1.824
  765SOL    HW1 2294   1.939   0.271   1.879
  765SOL    HW2 2295   1.957   0.126   1.836
  766SOL    OW  2296   1.998   0.383   2.002
  766SOL    HW1 2297   1.920   0.403   2.054
  766SOL    HW2 2298   2.054   0.333   2.061
  767SOL    OW  2299   2.170   0.577   1.940
  767SOL    HW1 2300   2.242   0.580   2.003
  767SOL    HW2 2301   2.113   0.507   1.973
  768SOL    OW  2302   1.430   0.200   2.167
  768SOL    HW1 2303   1.345   0.238   2.186
  768SOL    HW2 2304   1.468   0.183   2.254
  769SOL    OW  2305   1.379   0.242   1.431
  769SOL    HW1 2306   1.375   0.164   1.486
  769SOL    HW2 2307   1.438   0.301   1.478
  770SOL    OW  2308   1.551   0.154   1.203
  770SOL    HW1 2309   1.498   0.179   1.279
  770SOL    HW2 2310   1.620   0.220   1.200
  771SOL    OW  2311   1.626   0.227   1.807
  771SOL    HW1 2312   1.603   0.297   1.868
  771SOL    HW2 2313   1.720   0.214   1.821
  772SOL    OW  2314   2.180   0.218   1.393
  772SOL    HW1 2315   2.141   0.263   1.467
  772SOL    HW2 2316   2.239   0.283   1.354
  773SOL    OW  2317   2.169   0.213   2.180
  773SOL    HW1 2318   2.119   0.192   2.258
  773SOL    HW2 2319   2.248   0.256   2.213
  774SOL    OW  2320   1.777   0.312   1.195
  774SOL    HW1 2321   1.772   0.361   1.277
  774SOL    HW2 2322   1.852   0.254   1.206
  775SOL    OW  2323   1.780   0.468   2.139
  775SOL    HW1 2324   1.775   0.424   2.224
  775SOL    HW2 2325   1.782   0.561   2.159
  776SOL    OW  2326   1.213   0.341   2.259
  776SOL    HW1 2327   1.195   0.352   2.353
  776SOL    HW2 2328   1.203   0.429   2.222
  777SOL    OW  2329   1.995   0.128   1.199
  777SOL    HW1 2330   2.057   0.151   1.269
  777SOL    HW2 2331   2.038   0.157   1.119
  778SOL    OW  2332   1.296   3.594   2.029
  778SOL    HW1 2333   1.341   3.654   2.089
  778SOL    HW2 2334   1.345   3.601   1.947
  779SOL    OW  2335   1.478  -0.003   1.808
  779SOL    HW1 2336   1.420   0.002   1.732
  779SOL    HW2 2337   1.525   0.081   1.807
  780SOL    OW  2338   2.095   3.599   1.814
  780SOL    HW1 2339   2.037   3.523   1.816
  780SOL    HW2 2340   2.159   3.583   1.883
  781SOL    OW  2341   2.293  -0.005   2.016
  781SOL    HW1 2342   2.264   0.072   2.067
  781SOL    HW2 2343   2.387   0.007   2.007
  782SOL    OW  2344   2.274   0.012   1.576
  782SOL    HW1 2345   2.208  -0.010   1.642
  782SOL    HW2 2346   2.232   0.075   1.519
  783SOL    OW  2347   1.379   3.595   2.798
  783SOL    HW1 2348   1.285   3.611   2.791
  783SOL    HW2 2349   1.391   3.508   2.759
  784SOL    OW  2350   1.595   1.310   2.393
  784SOL    HW1 2351   1.539   1.303   2.470
  784SOL    HW2 2352   1.623   1.220   2.375
  785SOL    OW  2353   2.031   1.034   2.400
  785SOL    HW1 2354   2.033   1.129   2.406
  785SOL    HW2 2355   2.084   1.013   2.323
  786SOL    OW  2356   1.421   0.921   3.392
  786SOL    HW1 2357   1.405   1.007   3.355
  786SOL    HW2 2358   1.466   0.938   3.475
  787SOL    OW  2359   1.424   0.933   2.601
  787SOL    HW1 2360   1.396   1.005   2.656
  787SOL    HW2 2361   1.458   0.867   2.661
  788SOL    OW  2362   1.657   0.951   2.999
  788SOL    HW1 2363   1.602   1.028   3.014
  788SOL    HW2 2364   1.653   0.903   3.082
  789SOL    OW  2365   1.941   0.964   2.995
  789SOL    HW1 2366   1.847   0.980   2.985
  789SOL    HW2 2367   1.980   1.052   2.995
  790SOL    OW  2368   2.167   0.947   2.640
  790SOL    HW1 2369   2.212   1.008   2.698
  790SOL    HW2 2370   2.126   1.003   2.574
  791SOL    OW  2371   2.187   0.975   3.385
  791SOL    HW1 2372   2.235   1.024   3.317
  791SOL    HW2 2373   2.251   0.914   3.421
  792SOL    OW  2374   1.164   0.802   3.441
  792SOL    HW1 2375   1.166   0.789   3.536
  792SOL    HW2 2376   1.244   0.851   3.422
  793SOL    OW  2377   1.539   0.790   2.810
  793SOL    HW1 2378   1.584   0.852   2.867
  793SOL    HW2 2379   1.484   0.739   2.869
  794SOL    OW  2380   1.574   0.780   3.211
  794SOL    HW1 2381   1.518   0.834   3.267
  794SOL    HW2 2382   1.653   0.765   3.263
  795SOL    OW  2383   1.570   1.017   2.378
  795SOL    HW1 2384   1.513   0.995   2.452
  795SOL    HW2 2385   1.645   0.959   2.388
  796SOL    OW  2386   1.978   0.850   3.244
  796SOL    HW1 2387   1.968   0.903   3.165
  796SOL    HW2 2388   2.059   0.882   3.284
  797SOL    OW  2389   1.986   0.797   2.791
  797SOL    HW1 2390   1.968   0.849   2.870
  797SOL    HW2 2391   2.042   0.852   2.737
  798SOL    OW  2392   1.173   0.796   2.537
  798SOL    HW1 2393   1.101   0.848   2.572
  798SOL    HW2 2394   1.251   0.848   2.557
  799SOL    OW  2395   1.767   0.693   2.644
  799SOL    HW1 2396   1.687   0.720   2.689
  799SOL    HW2 2397   1.838   0.717   2.704
  800SOL    OW  2398   1.783   0.713   3.369
  800SOL    HW1 2399   1.784   0.755   3.455
  800SOL    HW2 2400   1.859   0.747   3.324
  801SOL    OW  2401   1.182   0.587   2.717
  801SOL    HW1 2402   1.176   0.665   2.662
  801SOL    HW2 2403   1.251   0.608   2.780
  802SOL    OW  2404   1.159   0.327   3.461
  802SOL    HW1 2405   1.173   0.366   3.547
  802SOL    HW2 2406   1.179   0.397   3.399
  803SOL    OW  2407   1.379   0.582   2.919
  803SOL    HW1 2408   1.392   0.575   3.014
  803SOL    HW2 2409   1.450   0.532   2.881
  804SOL    OW  2410   1.422   0.549   3.189
  804SOL    HW1 2411   1.479   0.625   3.200
  804SOL    HW2 2412   1.463   0.481   3.243
  805SOL    OW  2413   2.131   0.589   2.882
  805SOL    HW1 2414   2.140   0.608   2.975
  805SOL    HW2 2415   2.076   0.659   2.848
  806SOL    OW  2416   2.135   0.619   3.146
  806SOL    HW1 2417   2.070   0.682   3.179
  806SOL    HW2 2418   2.206   0.622   3.209
  807SOL    OW  2419   1.839   0.430   3.342
  807SOL    HW1 2420   1.824   0.523   3.359
  807SOL    HW2 2421   1.826   0.388   3.426
  808SOL    OW  2422   1.783   0.413   2.633
  808SOL    HW1 2423   1.788   0.509   2.629
  808SOL    HW2 2424   1.866   0.386   2.671
  809SOL    OW  2425   1.197   0.354   2.530
  809SOL    HW1 2426   1.192   0.434   2.583
  809SOL    HW2 2427   1.267   0.303   2.570
  810SOL    OW  2428   1.583   0.333   3.251
  810SOL    HW1 2429   1.530   0.279   3.310
  810SOL    HW2 2430   1.647   0.375   3.308
  811SOL    OW  2431   1.552   0.388   2.790
  811SOL    HW1 2432   1.571   0.350   2.875
  811SOL    HW2 2433   1.638   0.395   2.747
  812SOL    OW  2434   2.029   0.349   2.757
  812SOL    HW1 2435   2.098   0.307   2.706
  812SOL    HW2 2436   2.061   0.439   2.771
  813SOL    OW  2437   2.056   0.364   3.227
  813SOL    HW1 2438   1.975   0.387   3.272
  813SOL    HW2 2439   2.103   0.447   3.218
  814SOL    OW  2440   1.406   0.186   3.431
  814SOL    HW1 2441   1.331   0.236   3.462
  814SOL    HW2 2442   1.461   0.175   3.509
  815SOL    OW  2443   1.419   0.208   2.636
  815SOL    HW1 2444   1.414   0.132   2.694
  815SOL    HW2 2445   1.463   0.275   2.688
  816SOL    OW  2446   1.558   0.113   2.419
  816SOL    HW1 2447   1.497   0.135   2.490
  816SOL    HW2 2448   1.631   0.174   2.431
  817SOL    OW  2449   1.652   0.257   3.002
  817SOL    HW1 2450   1.620   0.281   3.088
  817SOL    HW2 2451   1.748   0.263   3.009
  818SOL    OW  2452   2.191   0.208   2.589
  818SOL    HW1 2453   2.217   0.128   2.635
  818SOL    HW2 2454   2.272   0.259   2.582
  819SOL    OW  2455   2.210   0.200   3.368
  819SOL    HW1 2456   2.153   0.255   3.315
  819SOL    HW2 2457   2.280   0.259   3.397
  820SOL    OW  2458   1.764   0.285   2.396
  820SOL    HW1 2459   1.768   0.328   2.481
  820SOL    HW2 2460   1.850   0.244   2.385
  821SOL    OW  2461   1.940   0.236   2.999
  821SOL    HW1 2462   1.978   0.273   3.079
  821SOL    HW2 2463   1.977   0.288   2.928
  822SOL    OW  2464   1.186   0.346   3.774
  822SOL    HW1 2465   1.195   0.429   3.822
  822SOL    HW2 2466   1.265   0.298   3.795
  823SOL    OW  2467   2.382   0.377   2.534
  823SOL    HW1 2468   2.460   0.323   2.548
  823SOL    HW2 2469   2.385   0.440   2.606
  824SOL    OW  2470   1.355   3.584   3.226
  824SOL    HW1 2471   1.372   3.655   3.289
  824SOL    HW2 2472   1.412   3.604   3.152
  825SOL    OW  2473   1.545   0.010   3.022
  825SOL    HW1 2474   1.511   0.006   2.932
  825SOL    HW2 2475   1.592   0.093   3.025
  826SOL    OW  2476   1.924   3.333   2.989
  826SOL    HW1 2477   1.834   3.365   2.987
  826SOL    HW2 2478   1.978   3.411   2.976
  827SOL    OW  2479   2.259   3.596   3.208
  827SOL    HW1 2480   2.237   3.675   3.257
  827SOL    HW2 2481   2.355   3.598   3.200
  828SOL    OW  2482   2.255   3.570   2.772
  828SOL    HW1 2483   2.177   3.572   2.827
  828SOL    HW2 2484   2.239   3.500   2.708
  829SOL    OW  2485   1.180   3.356   3.906
  829SOL    HW1 2486   1.120   3.325   3.839
  829SOL    HW2 2487   1.256   3.387   3.858
  830SOL    OW  2488   1.556   1.012   3.606
  830SOL    HW1 2489   1.567   1.107   3.594
  830SOL    HW2 2490   1.645   0.978   3.608
  831SOL    OW  2491   2.014   1.028   3.606
  831SOL    HW1 2492   1.979   1.112   3.578
  831SOL    HW2 2493   2.073   1.001   3.535
  832SOL    OW  2494   1.389   0.958   4.583
  832SOL    HW1 2495   1.385   1.043   4.541
  832SOL    HW2 2496   1.425   0.976   4.670
  833SOL    OW  2497   1.398   0.944   3.818
  833SOL    HW1 2498   1.448   0.910   3.892
  833SOL    HW2 2499   1.463   0.962   3.751
  834SOL    OW  2500   1.644   0.928   4.239
  834SOL    HW1 2501   1.605   1.016   4.245
  834SOL    HW2 2502   1.622   0.888   4.323
  835SOL    OW  2503   1.930   0.947   4.233
  835SOL    HW1 2504   1.834   0.947   4.227
  835SOL    HW2 2505   1.948   0.893   4.310
  836SOL    OW  2506   2.176   0.986   3.852
  836SOL    HW1 2507   2.183   1.065   3.905
  836SOL    HW2 2508   2.121   1.012   3.778
  837SOL    OW  2509   2.121   0.964   4.600
  837SOL    HW1 2510   2.146   1.029   4.535
  837SOL    HW2 2511   2.199   0.910   4.611
  838SOL    OW  2512   1.140   0.870   4.629
  838SOL    HW1 2513   1.122   0.846   4.720
  838SOL    HW2 2514   1.233   0.894   4.629
  839SOL    OW  2515   1.581   0.823   3.990
  839SOL    HW1 2516   1.588   0.869   4.074
  839SOL    HW2 2517   1.537   0.741   4.011
  840SOL    OW  2518   1.565   0.793   4.453
  840SOL    HW1 2519   1.511   0.854   4.503
  840SOL    HW2 2520   1.617   0.747   4.518
  841SOL    OW  2521   1.788   0.876   3.602
  841SOL    HW1 2522   1.778   0.830   3.685
  841SOL    HW2 2523   1.863   0.935   3.616
  842SOL    OW  2524   1.958   0.785   4.455
  842SOL    HW1 2525   2.029   0.729   4.422
  842SOL    HW2 2526   2.003   0.855   4.503
  843SOL    OW  2527   2.033   0.809   4.005
  843SOL    HW1 2528   2.021   0.868   4.079
  843SOL    HW2 2529   2.085   0.860   3.942
  844SOL    OW  2530   1.191   0.792   3.722
  844SOL    HW1 2531   1.126   0.862   3.734
  844SOL    HW2 2532   1.269   0.825   3.766
  845SOL    OW  2533   1.811   0.751   3.848
  845SOL    HW1 2534   1.730   0.777   3.893
  845SOL    HW2 2535   1.881   0.775   3.909
  846SOL    OW  2536   1.762   0.677   4.637
  846SOL    HW1 2537   1.764   0.741   4.709
  846SOL    HW2 2538   1.828   0.709   4.575
  847SOL    OW  2539   1.190   0.567   3.935
  847SOL    HW1 2540   1.186   0.628   3.861
  847SOL    HW2 2541   1.276   0.583   3.973
  848SOL    OW  2542   1.207   0.605   4.534
  848SOL    HW1 2543   1.203   0.698   4.558
  848SOL    HW2 2544   1.272   0.602   4.464
  849SOL    OW  2545   1.426   0.600   4.072
  849SOL    HW1 2546   1.424   0.582   4.166
  849SOL    HW2 2547   1.476   0.527   4.035
  850SOL    OW  2548   1.396   0.600   4.339
  850SOL    HW1 2549   1.453   0.671   4.368
  850SOL    HW2 2550   1.444   0.520   4.360
  851SOL    OW  2551   2.159   0.576   4.078
  851SOL    HW1 2552   2.243   0.591   4.033
  851SOL    HW2 2553   2.113   0.659   4.071
  852SOL    OW  2554   2.149   0.603   4.361
  852SOL    HW1 2555   2.229   0.587   4.412
  852SOL    HW2 2556   2.172   0.580   4.271
  853SOL    OW  2557   1.788   0.392   4.549
  853SOL    HW1 2558   1.783   0.478   4.592
  853SOL    HW2 2559   1.777   0.329   4.620
  854SOL    OW  2560   1.807   0.458   3.827
  854SOL    HW1 2561   1.803   0.553   3.835
  854SOL    HW2 2562   1.885   0.433   3.878
  855SOL    OW  2563   0.956   0.194   3.819
  855SOL    HW1 2564   0.905   0.248   3.879
  855SOL    HW2 2565   1.025   0.253   3.788
  856SOL    OW  2566   1.545   0.387   4.415
  856SOL    HW1 2567   1.501   0.318   4.465
  856SOL    HW2 2568   1.633   0.391   4.450
  857SOL    OW  2569   1.583   0.384   3.983
  857SOL    HW1 2570   1.659   0.419   3.937
  857SOL    HW2 2571   1.619   0.346   4.063
  858SOL    OW  2572   2.024   0.360   3.960
  858SOL    HW1 2573   2.075   0.433   3.997
  858SOL    HW2 2574   2.004   0.305   4.036
  859SOL    OW  2575   2.049   0.371   4.424
  859SOL    HW1 2576   1.963   0.376   4.466
  859SOL    HW2 2577   2.076   0.462   4.416
  860SOL    OW  2578   1.413   0.195   4.573
  860SOL    HW1 2579   1.362   0.267   4.610
  860SOL    HW2 2580   1.456   0.156   4.649
  861SOL    OW  2581   1.434   0.212   3.826
  861SOL    HW1 2582   1.399   0.140   3.878
  861SOL    HW2 2583   1.482   0.266   3.889
  862SOL    OW  2584   1.593   0.137   3.631
  862SOL    HW1 2585   1.543   0.175   3.704
  862SOL    HW2 2586   1.657   0.204   3.609
  863SOL    OW  2587   1.660   0.247   4.198
  863SOL    HW1 2588   1.616   0.265   4.282
  863SOL    HW2 2589   1.753   0.259   4.217
  864SOL    OW  2590   2.445   0.345   3.742
  864SOL    HW1 2591   2.367   0.290   3.752
  864SOL    HW2 2592   2.518   0.282   3.736
  865SOL    OW  2593   2.216   0.193   4.567
  865SOL    HW1 2594   2.181   0.238   4.491
  865SOL    HW2 2595   2.233   0.104   4.537
  866SOL    OW  2596   1.811   0.295   3.567
  866SOL    HW1 2597   1.825   0.355   3.640
  866SOL    HW2 2598   1.874   0.224   3.582
  867SOL    OW  2599   1.931   0.237   4.216
  867SOL    HW1 2600   1.977   0.155   4.202
  867SOL    HW2 2601   1.986   0.286   4.277
  868SOL    OW  2602   1.198   0.363   4.666
  868SOL    HW1 2603   1.188   0.385   4.759
  868SOL    HW2 2604   1.193   0.447   4.620
  869SOL    OW  2605   2.024   0.127   3.584
  869SOL    HW1 2606   2.081   0.151   3.658
  869SOL    HW2 2607   2.080   0.138   3.507
  870SOL    OW  2608   1.315   0.002   4.406
  870SOL    HW1 2609   1.346   0.077   4.456
  870SOL    HW2 2610   1.377  -0.006   4.332
  871SOL    OW  2611   1.515  -0.003   4.201
  871SOL    HW1 2612   1.443   0.013   4.141
  871SOL    HW2 2613   1.564   0.080   4.201
  872SOL    OW  2614   2.166   3.368   3.802
  872SOL    HW1 2615   2.134   3.393   3.715
  872SOL    HW2 2616   2.198   3.449   3.841
  873SOL    OW  2617   2.175   3.320   4.574
  873SOL    HW1 2618   2.113   3.346   4.642
  873SOL    HW2 2619   2.248   3.280   4.621
  874SOL    OW  2620   2.198   0.198   3.818
  874SOL    HW1 2621   2.219   0.140   3.891
  874SOL    HW2 2622   2.132   0.258   3.854
  875SOL    OW  2623   1.316   0.009   5.148
  875SOL    HW1 2624   1.223  -0.009   5.163
  875SOL    HW2 2625   1.346  -0.066   5.097
  876SOL    OW  2626   1.515   1.035   4.816
  876SOL    HW1 2627   1.533   1.128   4.825
  876SOL    HW2 2628   1.601   0.993   4.818
  877SOL    OW  2629   1.962   1.071   4.806
  877SOL    HW1 2630   1.973   1.165   4.797
  877SOL    HW2 2631   2.004   1.034   4.729
  878SOL    OW  2632   1.366   0.938   5.753
  878SOL    HW1 2633   1.348   1.017   5.703
  878SOL    HW2 2634   1.431   0.964   5.817
  879SOL    OW  2635   1.391   0.968   5.034
  879SOL    HW1 2636   1.462   0.921   5.078
  879SOL    HW2 2637   1.433   1.015   4.962
  880SOL    OW  2638   1.665   0.956   5.389
  880SOL    HW1 2639   1.601   1.026   5.377
  880SOL    HW2 2640   1.637   0.912   5.470
  881SOL    OW  2641   1.960   0.929   5.402
  881SOL    HW1 2642   1.873   0.968   5.414
  881SOL    HW2 2643   2.019   1.004   5.398
  882SOL    OW  2644   2.153   0.960   5.000
  882SOL    HW1 2645   2.200   1.024   5.054
  882SOL    HW2 2646   2.087   1.011   4.954
  883SOL    OW  2647   2.163   0.969   5.775
  883SOL    HW1 2648   2.199   1.041   5.723
  883SOL    HW2 2649   2.235   0.906   5.781
  884SOL    OW  2650   0.769   0.814   5.665
  884SOL    HW1 2651   0.740   0.863   5.589
  884SOL    HW2 2652   0.830   0.873   5.709
  885SOL    OW  2653   1.571   0.788   5.159
  885SOL    HW1 2654   1.597   0.835   5.238
  885SOL    HW2 2655   1.503   0.728   5.188
  886SOL    OW  2656   1.562   0.822   5.584
  886SOL    HW1 2657   1.494   0.869   5.632
  886SOL    HW2 2658   1.622   0.791   5.653
  887SOL    OW  2659   1.760   0.880   4.811
  887SOL    HW1 2660   1.790   0.818   4.878
  887SOL    HW2 2661   1.825   0.950   4.812
  888SOL    OW  2662   2.003   0.783   5.616
  888SOL    HW1 2663   1.979   0.821   5.531
  888SOL    HW2 2664   2.041   0.856   5.665
  889SOL    OW  2665   2.026   0.768   5.183
  889SOL    HW1 2666   1.995   0.828   5.250
  889SOL    HW2 2667   2.085   0.820   5.129
  890SOL    OW  2668   1.175   0.814   4.916
  890SOL    HW1 2669   1.117   0.879   4.954
  890SOL    HW2 2670   1.263   0.851   4.925
  891SOL    OW  2671   1.813   0.712   5.013
  891SOL    HW1 2672   1.749   0.724   5.084
  891SOL    HW2 2673   1.898   0.716   5.056
  892SOL    OW  2674   1.765   0.751   5.760
  892SOL    HW1 2675   1.755   0.820   5.826
  892SOL    HW2 2676   1.848   0.771   5.717
  893SOL    OW  2677   1.144   0.601   5.095
  893SOL    HW1 2678   1.054   0.601   5.126
  893SOL    HW2 2679   1.154   0.685   5.049
  894SOL    OW  2680   1.171   0.551   5.653
  894SOL    HW1 2681   1.179   0.617   5.723
  894SOL    HW2 2682   1.245   0.567   5.596
  895SOL    OW  2683   1.394   0.592   5.226
  895SOL    HW1 2684   1.437   0.513   5.195
  895SOL    HW2 2685   1.308   0.591   5.183
  896SOL    OW  2686   1.402   0.597   5.495
  896SOL    HW1 2687   1.438   0.684   5.510
  896SOL    HW2 2688   1.387   0.593   5.400
  897SOL    OW  2689   2.165   0.554   5.259
  897SOL    HW1 2690   2.161   0.552   5.355
  897SOL    HW2 2691   2.112   0.629   5.235
  898SOL    OW  2692   2.156   0.559   5.546
  898SOL    HW1 2693   2.120   0.636   5.590
  898SOL    HW2 2694   2.237   0.541   5.592
  899SOL    OW  2695   1.776   0.472   5.790
  899SOL    HW1 2696   1.774   0.567   5.792
  899SOL    HW2 2697   1.697   0.447   5.742
  900SOL    OW  2698   1.795   0.419   5.010
  900SOL    HW1 2699   1.794   0.509   4.978
  900SOL    HW2 2700   1.871   0.414   5.068
  901SOL    OW  2701   1.149   0.364   4.935
  901SOL    HW1 2702   1.234   0.324   4.953
  901SOL    HW2 2703   1.152   0.448   4.981
  902SOL    OW  2704   1.558   0.406   5.639
  902SOL    HW1 2705   1.507   0.339   5.683
  902SOL    HW2 2706   1.493   0.460   5.594
  903SOL    OW  2707   1.572   0.378   5.176
  903SOL    HW1 2708   1.582   0.312   5.245
  903SOL    HW2 2709   1.651   0.370   5.123
  904SOL    OW  2710   1.992   0.355   5.189
  904SOL    HW1 2711   2.046   0.308   5.126
  904SOL    HW2 2712   2.039   0.436   5.206
  905SOL    OW  2713   1.947   0.360   5.620
  905SOL    HW1 2714   1.884   0.399   5.681
  905SOL    HW2 2715   1.995   0.434   5.584
  906SOL    OW  2716   1.427   0.200   5.765
  906SOL    HW1 2717   1.344   0.240   5.789
  906SOL    HW2 2718   1.466   0.174   5.849
  907SOL    OW  2719   1.398   0.236   4.977
  907SOL    HW1 2720   1.362   0.172   5.037
  907SOL    HW2 2721   1.457   0.289   5.031
  908SOL    OW  2722   1.537   0.094   4.790
  908SOL    HW1 2723   1.491   0.150   4.854
  908SOL    HW2 2724   1.627   0.128   4.789
  909SOL    OW  2725   1.616   0.235   5.418
  909SOL    HW1 2726   1.601   0.291   5.494
  909SOL    HW2 2727   1.711   0.234   5.408
  910SOL    OW  2728   2.386   0.341   4.905
  910SOL    HW1 2729   2.374   0.429   4.941
  910SOL    HW2 2730   2.417   0.355   4.815
  911SOL    OW  2731   2.120   0.191   5.775
  911SOL    HW1 2732   2.056   0.257   5.750
  911SOL    HW2 2733   2.197   0.242   5.804
  912SOL    OW  2734   1.775   0.232   4.790
  912SOL    HW1 2735   1.791   0.288   4.865
  912SOL    HW2 2736   1.858   0.188   4.773
  913SOL    OW  2737   1.891   0.198   5.401
  913SOL    HW1 2738   1.910   0.261   5.470
  913SOL    HW2 2739   1.923   0.239   5.321
  914SOL    OW  2740   1.038   3.565   5.592
  914SOL    HW1 2741   1.122   3.594   5.558
  914SOL    HW2 2742   1.017   3.627   5.662
  915SOL    OW  2743   2.014   0.098   4.766
  915SOL    HW1 2744   2.010   0.003   4.772
  915SOL    HW2 2745   2.071   0.115   4.691
  916SOL    OW  2746   1.332   3.579   5.649
  916SOL    HW1 2747   1.367   3.657   5.693
  916SOL    HW2 2748   1.382   3.573   5.568
  917SOL    OW  2749   1.466   3.581   5.383
  917SOL    HW1 2750   1.413   3.600   5.306
  917SOL    HW2 2751   1.503   3.666   5.409
  918SOL    OW  2752   2.059   3.579   5.382
  918SOL    HW1 2753   2.004   3.657   5.382
  918SOL    HW2 2754   2.104   3.581   5.466
  919SOL    OW  2755   2.224   0.019   5.611
  919SOL    HW1 2756   2.186   0.079   5.676
  919SOL    HW2 2757   2.317   0.038   5.612
  920SOL    OW  2758   2.227   3.587   5.138
  920SOL    HW1 2759   2.175   3.585   5.218
  920SOL    HW2 2760   2.189   3.658   5.086
  921SOL    OW  2761   1.356   1.121   0.402
  921SOL    HW1 2762   1.369   1.207   0.363
  921SOL    HW2 2763   1.374   1.059   0.332
  922SOL    OW  2764   1.511   2.216   5.982
  922SOL    HW1 2765   1.548   2.305   5.976
  922SOL    HW2 2766   1.586   2.160   5.997
  923SOL    OW  2767   1.955   2.260   0.009
  923SOL    HW1 2768   2.020   2.255   0.079
  923SOL    HW2 2769   1.999   2.221  -0.066
  924SOL    OW  2770   1.400   2.171   0.912
  924SOL    HW1 2771   1.357   2.232   0.852
  924SOL    HW2 2772   1.454   2.226   0.969
  925SOL    OW  2773   1.383   2.165   0.192
  925SOL    HW1 2774   1.439   2.105   0.241
  925SOL    HW2 2775   1.431   2.182   0.111
  926SOL    OW  2776   1.635   2.136   0.564
  926SOL    HW1 2777   1.583   2.215   0.551
  926SOL    HW2 2778   1.590   2.089   0.634
  927SOL    OW  2779   1.929   2.125   0.584
  927SOL    HW1 2780   1.836   2.148   0.588
  927SOL    HW2 2781   1.973   2.208   0.565
  928SOL    OW  2782   2.163   2.188   0.198
  928SOL    HW1 2783   2.194   2.261   0.252
  928SOL    HW2 2784   2.110   2.135   0.258
  929SOL    OW  2785   2.145   2.194   0.943
  929SOL    HW1 2786   2.183   2.266   0.892
  929SOL    HW2 2787   2.221   2.149   0.981
  930SOL    OW  2788   0.996   2.182   0.929
  930SOL    HW1 2789   0.968   2.180   1.020
  930SOL    HW2 2790   1.078   2.132   0.928
  931SOL    OW  2791   1.540   1.997   0.326
  931SOL    HW1 2792   1.583   2.051   0.393
  931SOL    HW2 2793   1.494   1.929   0.376
  932SOL    OW  2794   1.561   1.974   0.779
  932SOL    HW1 2795   1.519   2.053   0.815
  932SOL    HW2 2796   1.616   1.942   0.851
  933SOL    OW  2797   2.090   2.151   5.791
  933SOL    HW1 2798   2.109   2.227   5.737
  933SOL    HW2 2799   2.175   2.106   5.799
  934SOL    OW  2800   1.988   1.985   0.808
  934SOL    HW1 2801   1.951   2.010   0.723
  934SOL    HW2 2802   2.030   2.065   0.840
  935SOL    OW  2803   2.010   2.028   0.348
  935SOL    HW1 2804   2.052   1.949   0.381
  935SOL    HW2 2805   1.982   2.075   0.426
  936SOL    OW  2806   1.193   1.974   0.127
  936SOL    HW1 2807   1.122   2.027   0.164
  936SOL    HW2 2808   1.272   2.025   0.143
  937SOL    OW  2809   1.784   1.904   0.214
  937SOL    HW1 2810   1.702   1.931   0.256
  937SOL    HW2 2811   1.852   1.939   0.272
  938SOL    OW  2812   1.768   1.930   0.965
  938SOL    HW1 2813   1.774   1.993   1.037
  938SOL    HW2 2814   1.839   1.955   0.906
  939SOL    OW  2815   0.973   1.745   0.467
  939SOL    HW1 2816   0.967   1.754   0.562
  939SOL    HW2 2817   0.911   1.810   0.433
  940SOL    OW  2818   1.177   1.759   0.888
  940SOL    HW1 2819   1.166   1.851   0.914
  940SOL    HW2 2820   1.260   1.758   0.841
  941SOL    OW  2821   1.425   1.783   0.437
  941SOL    HW1 2822   1.422   1.779   0.533
  941SOL    HW2 2823   1.338   1.755   0.409
  942SOL    OW  2824   1.400   1.760   0.724
  942SOL    HW1 2825   1.456   1.835   0.742
  942SOL    HW2 2826   1.458   1.684   0.733
  943SOL    OW  2827   2.151   2.633   0.213
  943SOL    HW1 2828   2.097   2.628   0.135
  943SOL    HW2 2829   2.105   2.695   0.270
  944SOL    OW  2830   2.150   1.738   0.710
  944SOL    HW1 2831   2.087   1.804   0.740
  944SOL    HW2 2832   2.224   1.746   0.771
  945SOL    OW  2833   1.808   1.619   0.928
  945SOL    HW1 2834   1.813   1.713   0.944
  945SOL    HW2 2835   1.792   1.581   1.015
  946SOL    OW  2836   1.987   1.574   0.361
  946SOL    HW1 2837   2.048   1.647   0.372
  946SOL    HW2 2838   1.968   1.544   0.450
  947SOL    OW  2839   1.174   1.731   0.284
  947SOL    HW1 2840   1.167   1.817   0.242
  947SOL    HW2 2841   1.111   1.735   0.357
  948SOL    OW  2842   1.560   1.526   0.802
  948SOL    HW1 2843   1.576   1.449   0.747
  948SOL    HW2 2844   1.646   1.551   0.834
  949SOL    OW  2845   1.791   1.625   0.171
  949SOL    HW1 2846   1.857   1.598   0.234
  949SOL    HW2 2847   1.795   1.721   0.172
  950SOL    OW  2848   2.148   1.800   0.445
  950SOL    HW1 2849   2.169   1.796   0.538
  950SOL    HW2 2850   2.233   1.797   0.401
  951SOL    OW  2851   2.024   1.508   0.829
  951SOL    HW1 2852   1.946   1.552   0.862
  951SOL    HW2 2853   2.075   1.577   0.787
  952SOL    OW  2854   1.348   1.371   0.950
  952SOL    HW1 2855   1.404   1.430   0.900
  952SOL    HW2 2856   1.270   1.422   0.969
  953SOL    OW  2857   1.558   1.539   0.369
  953SOL    HW1 2858   1.495   1.606   0.393
  953SOL    HW2 2859   1.630   1.587   0.328
  954SOL    OW  2860   1.567   1.311   5.985
  954SOL    HW1 2861   1.552   1.311   6.079
  954SOL    HW2 2862   1.651   1.355   5.974
  955SOL    OW  2863   1.651   1.380   0.581
  955SOL    HW1 2864   1.746   1.390   0.579
  955SOL    HW2 2865   1.620   1.424   0.502
  956SOL    OW  2866   2.188   1.440   0.197
  956SOL    HW1 2867   2.146   1.495   0.263
  956SOL    HW2 2868   2.264   1.490   0.168
  957SOL    OW  2869   2.197   1.372   0.988
  957SOL    HW1 2870   2.120   1.418   0.954
  957SOL    HW2 2871   2.263   1.440   0.999
  958SOL    OW  2872   1.794   1.474   5.951
  958SOL    HW1 2873   1.795   1.527   6.031
  958SOL    HW2 2874   1.870   1.416   5.959
  959SOL    OW  2875   1.930   1.417   0.597
  959SOL    HW1 2876   1.965   1.437   0.684
  959SOL    HW2 2877   1.972   1.334   0.573
  960SOL    OW  2878   1.137   1.534   1.060
  960SOL    HW1 2879   1.154   1.549   1.153
  960SOL    HW2 2880   1.183   1.605   1.016
  961SOL    OW  2881   2.056   1.323   5.997
  961SOL    HW1 2882   2.100   1.379   6.060
  961SOL    HW2 2883   2.100   1.341   5.914
  962SOL    OW  2884   1.275   1.162   0.811
  962SOL    HW1 2885   1.290   1.249   0.849
  962SOL    HW2 2886   1.352   1.145   0.758
  963SOL    OW  2887   1.482   1.153   0.637
  963SOL    HW1 2888   1.440   1.136   0.553
  963SOL    HW2 2889   1.524   1.238   0.626
  964SOL    OW  2890   2.075   1.176   0.566
  964SOL    HW1 2891   2.130   1.168   0.644
  964SOL    HW2 2892   2.025   1.094   0.564
  965SOL    OW  2893   2.241   1.171   0.799
  965SOL    HW1 2894   2.222   1.246   0.855
  965SOL    HW2 2895   2.336   1.173   0.787
  966SOL    OW  2896   2.263   1.210   0.340
  966SOL    HW1 2897   2.219   1.202   0.425
  966SOL    HW2 2898   2.242   1.298   0.310
  967SOL    OW  2899   1.329   1.203   1.534
  967SOL    HW1 2900   1.235   1.205   1.555
  967SOL    HW2 2901   1.342   1.120   1.490
  968SOL    OW  2902   1.526   2.273   1.139
  968SOL    HW1 2903   1.539   2.368   1.136
  968SOL    HW2 2904   1.486   2.256   1.224
  969SOL    OW  2905   2.016   2.277   1.182
  969SOL    HW1 2906   1.931   2.234   1.195
  969SOL    HW2 2907   2.045   2.247   1.096
  970SOL    OW  2908   1.402   2.176   2.174
  970SOL    HW1 2909   1.375   2.257   2.130
  970SOL    HW2 2910   1.466   2.204   2.239
  971SOL    OW  2911   1.426   2.118   1.392
  971SOL    HW1 2912   1.490   2.064   1.440
  971SOL    HW2 2913   1.412   2.194   1.448
  972SOL    OW  2914   1.684   2.177   1.793
  972SOL    HW1 2915   1.667   2.123   1.870
  972SOL    HW2 2916   1.662   2.121   1.719
  973SOL    OW  2917   1.953   2.135   1.792
  973SOL    HW1 2918   1.859   2.153   1.790
  973SOL    HW2 2919   1.973   2.100   1.705
  974SOL    OW  2920   2.158   2.193   1.415
  974SOL    HW1 2921   2.185   2.271   1.463
  974SOL    HW2 2922   2.117   2.226   1.336
  975SOL    OW  2923   2.186   2.139   2.171
  975SOL    HW1 2924   2.204   2.226   2.137
  975SOL    HW2 2925   2.272   2.100   2.185
  976SOL    OW  2926   1.195   2.003   2.240
  976SOL    HW1 2927   1.212   1.987   2.332
  976SOL    HW2 2928   1.268   2.058   2.211
  977SOL    OW  2929   1.648   2.012   1.597
  977SOL    HW1 2930   1.727   1.967   1.570
  977SOL    HW2 2931   1.587   1.942   1.621
  978SOL    OW  2932   1.572   2.030   1.999
  978SOL    HW1 2933   1.508   2.080   2.050
  978SOL    HW2 2934   1.635   1.999   2.063
  979SOL    OW  2935   1.781   2.113   1.167
  979SOL    HW1 2936   1.692   2.148   1.168
  979SOL    HW2 2937   1.781   2.045   1.234
  980SOL    OW  2938   1.996   1.998   2.026
  980SOL    HW1 2939   1.972   2.059   1.955
  980SOL    HW2 2940   2.057   2.048   2.080
  981SOL    OW  2941   1.976   2.005   1.532
  981SOL    HW1 2942   2.036   1.951   1.584
  981SOL    HW2 2943   2.033   2.059   1.477
  982SOL    OW  2944   1.200   2.021   1.017
  982SOL    HW1 2945   1.209   2.003   1.111
  982SOL    HW2 2946   1.275   2.077   0.997
  983SOL    OW  2947   1.787   1.903   1.358
  983SOL    HW1 2948   1.769   1.810   1.372
  983SOL    HW2 2949   1.859   1.923   1.417
  984SOL    OW  2950   1.789   1.912   2.180
  984SOL    HW1 2951   1.801   1.970   2.254
  984SOL    HW2 2952   1.851   1.943   2.114
  985SOL    OW  2953   1.182   1.814   1.478
  985SOL    HW1 2954   1.186   1.876   1.406
  985SOL    HW2 2955   1.260   1.831   1.530
  986SOL    OW  2956   1.190   1.771   2.089
  986SOL    HW1 2957   1.191   1.851   2.142
  986SOL    HW2 2958   1.273   1.773   2.041
  987SOL    OW  2959   1.445   1.816   1.634
  987SOL    HW1 2960   1.424   1.794   1.725
  987SOL    HW2 2961   1.473   1.733   1.595
  988SOL    OW  2962   1.418   1.816   1.943
  988SOL    HW1 2963   1.477   1.890   1.932
  988SOL    HW2 2964   1.474   1.745   1.976
  989SOL    OW  2965   2.148   1.812   1.657
  989SOL    HW1 2966   2.146   1.792   1.751
  989SOL    HW2 2967   2.241   1.816   1.635
  990SOL    OW  2968   2.121   1.778   1.922
  990SOL    HW1 2969   2.068   1.852   1.950
  990SOL    HW2 2970   2.204   1.788   1.968
  991SOL    OW  2971   1.767   1.631   2.150
  991SOL    HW1 2972   1.773   1.726   2.166
  991SOL    HW2 2973   1.765   1.592   2.237
  992SOL    OW  2974   1.788   1.624   1.405
  992SOL    HW1 2975   1.719   1.593   1.464
  992SOL    HW2 2976   1.869   1.611   1.454
  993SOL    OW  2977   1.188   1.556   1.352
  993SOL    HW1 2978   1.188   1.643   1.392
  993SOL    HW2 2979   1.273   1.519   1.375
  994SOL    OW  2980   1.524   1.571   1.990
  994SOL    HW1 2981   1.490   1.505   2.051
  994SOL    HW2 2982   1.599   1.610   2.035
  995SOL    OW  2983   1.556   1.579   1.539
  995SOL    HW1 2984   1.598   1.524   1.606
  995SOL    HW2 2985   1.507   1.517   1.485
  996SOL    OW  2986   2.001   1.582   1.563
  996SOL    HW1 2987   2.048   1.663   1.580
  996SOL    HW2 2988   1.954   1.564   1.644
  997SOL    OW  2989   1.990   1.551   2.011
  997SOL    HW1 2990   1.912   1.586   2.053
  997SOL    HW2 2991   2.035   1.628   1.976
  998SOL    OW  2992   1.408   1.379   2.197
  998SOL    HW1 2993   1.468   1.373   2.271
  998SOL    HW2 2994   1.325   1.408   2.235
  999SOL    OW  2995   1.424   1.404   1.373
  999SOL    HW1 2996   1.444   1.362   1.290
  999SOL    HW2 2997   1.410   1.332   1.434
 1000SOL    OW  2998   1.544   1.286   1.131
 1000SOL    HW1 2999   1.477   1.296   1.064
 1000SOL    HW2 3000   1.596   1.366   1.125
 1001SOL    OW  3001   1.645   1.448   1.762
 1001SOL    HW1 3002   1.606   1.471   1.846
 1001SOL    HW2 3003   1.739   1.455   1.776
 1002SOL    OW  3004   2.168   1.429   1.430
 1002SOL    HW1 3005   2.101   1.477   1.480
 1002SOL    HW2 3006   2.235   1.494   1.411
 1003SOL    OW  3007   2.169   1.449   2.183
 1003SOL    HW1 3008   2.111   1.477   2.111
 1003SOL    HW2 3009   2.242   1.510   2.179
 1004SOL    OW  3010   1.787   1.477   1.165
 1004SOL    HW1 3011   1.773   1.522   1.248
 1004SOL    HW2 3012   1.866   1.424   1.179
 1005SOL    OW  3013   1.901   1.418   1.785
 1005SOL    HW1 3014   1.947   1.335   1.770
 1005SOL    HW2 3015   1.949   1.458   1.858
 1006SOL    OW  3016   1.183   1.534   2.246
 1006SOL    HW1 3017   1.176   1.561   2.338
 1006SOL    HW2 3018   1.176   1.615   2.197
 1007SOL    OW  3019   2.038   1.301   1.207
 1007SOL    HW1 3020   2.106   1.324   1.144
 1007SOL    HW2 3021   2.066   1.341   1.289
 1008SOL    OW  3022   1.328   1.213   1.996
 1008SOL    HW1 3023   1.362   1.281   2.053
 1008SOL    HW2 3024   1.376   1.223   1.914
 1009SOL    OW  3025   1.475   1.188   1.769
 1009SOL    HW1 3026   1.434   1.191   1.683
 1009SOL    HW2 3027   1.541   1.257   1.767
 1010SOL    OW  3028   2.050   1.200   1.770
 1010SOL    HW1 3029   2.106   1.191   1.693
 1010SOL    HW2 3030   2.107   1.180   1.844
 1011SOL    OW  3031   2.221   1.213   2.012
 1011SOL    HW1 3032   2.203   1.285   2.073
 1011SOL    HW2 3033   2.315   1.197   2.022
 1012SOL    OW  3034   2.221   1.188   1.570
 1012SOL    HW1 3035   2.192   1.274   1.538
 1012SOL    HW2 3036   2.206   1.129   1.496
 1013SOL    OW  3037   1.346   1.149   2.765
 1013SOL    HW1 3038   1.253   1.165   2.782
 1013SOL    HW2 3039   1.371   1.217   2.702
 1014SOL    OW  3040   1.781   2.076   2.406
 1014SOL    HW1 3041   1.720   2.147   2.388
 1014SOL    HW2 3042   1.862   2.119   2.434
 1015SOL    OW  3043   2.053   2.241   2.394
 1015SOL    HW1 3044   2.043   2.335   2.381
 1015SOL    HW2 3045   2.113   2.213   2.324
 1016SOL    OW  3046   1.412   2.152   3.347
 1016SOL    HW1 3047   1.391   2.229   3.295
 1016SOL    HW2 3048   1.462   2.186   3.421
 1017SOL    OW  3049   1.579   2.254   2.370
 1017SOL    HW1 3050   1.514   2.230   2.436
 1017SOL    HW2 3051   1.586   2.349   2.377
 1018SOL    OW  3052   1.616   2.018   3.212
 1018SOL    HW1 3053   1.630   2.060   3.127
 1018SOL    HW2 3054   1.561   2.079   3.260
 1019SOL    OW  3055   1.937   2.117   2.981
 1019SOL    HW1 3056   1.844   2.135   2.987
 1019SOL    HW2 3057   1.947   2.070   2.898
 1020SOL    OW  3058   2.179   2.148   2.619
 1020SOL    HW1 3059   2.221   2.222   2.665
 1020SOL    HW2 3060   2.138   2.188   2.543
 1021SOL    OW  3061   2.168   2.143   3.338
 1021SOL    HW1 3062   2.205   2.221   3.297
 1021SOL    HW2 3063   2.244   2.093   3.368
 1022SOL    OW  3064   1.205   2.014   3.455
 1022SOL    HW1 3065   1.134   2.065   3.416
 1022SOL    HW2 3066   1.285   2.054   3.420
 1023SOL    OW  3067   1.647   2.140   2.970
 1023SOL    HW1 3068   1.606   2.111   2.889
 1023SOL    HW2 3069   1.613   2.228   2.984
 1024SOL    OW  3070   1.832   1.946   3.367
 1024SOL    HW1 3071   1.750   1.962   3.319
 1024SOL    HW2 3072   1.897   1.932   3.299
 1025SOL    OW  3073   1.769   1.915   2.627
 1025SOL    HW1 3074   1.843   1.939   2.683
 1025SOL    HW2 3075   1.781   1.967   2.547
 1026SOL    OW  3076   2.046   1.953   3.186
 1026SOL    HW1 3077   2.013   2.011   3.117
 1026SOL    HW2 3078   2.083   2.013   3.251
 1027SOL    OW  3079   2.008   1.976   2.756
 1027SOL    HW1 3080   2.079   1.914   2.772
 1027SOL    HW2 3081   2.047   2.043   2.701
 1028SOL    OW  3082   1.407   2.170   2.575
 1028SOL    HW1 3083   1.336   2.115   2.541
 1028SOL    HW2 3084   1.462   2.110   2.625
 1029SOL    OW  3085   1.536   1.985   2.750
 1029SOL    HW1 3086   1.483   1.907   2.768
 1029SOL    HW2 3087   1.609   1.953   2.697
 1030SOL    OW  3088   1.792   2.097   3.595
 1030SOL    HW1 3089   1.771   2.028   3.657
 1030SOL    HW2 3090   1.826   2.051   3.518
 1031SOL    OW  3091   1.214   1.982   2.522
 1031SOL    HW1 3092   1.136   2.037   2.531
 1031SOL    HW2 3093   1.190   1.901   2.567
 1032SOL    OW  3094   1.200   1.773   3.297
 1032SOL    HW1 3095   1.199   1.858   3.342
 1032SOL    HW2 3096   1.289   1.767   3.262
 1033SOL    OW  3097   1.399   1.778   2.884
 1033SOL    HW1 3098   1.413   1.802   2.975
 1033SOL    HW2 3099   1.437   1.691   2.875
 1034SOL    OW  3100   1.450   1.831   3.132
 1034SOL    HW1 3101   1.510   1.902   3.158
 1034SOL    HW2 3102   1.500   1.751   3.149
 1035SOL    OW  3103   2.179   1.775   2.837
 1035SOL    HW1 3104   2.212   1.752   2.924
 1035SOL    HW2 3105   2.258   1.784   2.784
 1036SOL    OW  3106   2.170   1.705   3.112
 1036SOL    HW1 3107   2.126   1.789   3.115
 1036SOL    HW2 3108   2.244   1.714   3.172
 1037SOL    OW  3109   1.792   1.659   3.356
 1037SOL    HW1 3110   1.785   1.750   3.385
 1037SOL    HW2 3111   1.789   1.608   3.437
 1038SOL    OW  3112   1.765   1.646   2.663
 1038SOL    HW1 3113   1.767   1.595   2.582
 1038SOL    HW2 3114   1.768   1.738   2.634
 1039SOL    OW  3115   1.168   1.542   2.527
 1039SOL    HW1 3116   1.093   1.498   2.567
 1039SOL    HW2 3117   1.171   1.628   2.570
 1040SOL    OW  3118   1.576   1.588   3.203
 1040SOL    HW1 3119   1.544   1.527   3.270
 1040SOL    HW2 3120   1.664   1.611   3.233
 1041SOL    OW  3121   1.549   1.547   2.796
 1041SOL    HW1 3122   1.589   1.494   2.865
 1041SOL    HW2 3123   1.622   1.572   2.740
 1042SOL    OW  3124   2.010   1.549   2.746
 1042SOL    HW1 3125   1.928   1.593   2.726
 1042SOL    HW2 3126   2.064   1.617   2.787
 1043SOL    OW  3127   1.991   1.537   3.198
 1043SOL    HW1 3128   1.919   1.582   3.242
 1043SOL    HW2 3129   2.049   1.608   3.169
 1044SOL    OW  3130   1.440   1.402   3.367
 1044SOL    HW1 3131   1.359   1.445   3.393
 1044SOL    HW2 3132   1.480   1.374   3.449
 1045SOL    OW  3133   0.770   1.557   2.739
 1045SOL    HW1 3134   0.713   1.610   2.683
 1045SOL    HW2 3135   0.845   1.614   2.758
 1046SOL    OW  3136   1.430   1.395   2.609
 1046SOL    HW1 3137   1.354   1.447   2.582
 1046SOL    HW2 3138   1.475   1.450   2.673
 1047SOL    OW  3139   1.632   1.379   2.989
 1047SOL    HW1 3140   1.610   1.443   3.057
 1047SOL    HW2 3141   1.728   1.385   2.981
 1048SOL    OW  3142   2.185   1.398   2.617
 1048SOL    HW1 3143   2.119   1.450   2.664
 1048SOL    HW2 3144   2.247   1.463   2.585
 1049SOL    OW  3145   2.139   1.386   3.411
 1049SOL    HW1 3146   2.099   1.460   3.365
 1049SOL    HW2 3147   2.220   1.422   3.448
 1050SOL    OW  3148   1.788   1.479   2.415
 1050SOL    HW1 3149   1.716   1.416   2.408
 1050SOL    HW2 3150   1.867   1.424   2.420
 1051SOL    OW  3151   1.905   1.414   2.953
 1051SOL    HW1 3152   1.920   1.471   3.029
 1051SOL    HW2 3153   1.943   1.462   2.879
 1052SOL    OW  3154   1.179   1.514   3.438
 1052SOL    HW1 3155   1.176   1.537   3.531
 1052SOL    HW2 3156   1.171   1.598   3.392
 1053SOL    OW  3157   2.029   1.332   2.409
 1053SOL    HW1 3158   2.073   1.349   2.492
 1053SOL    HW2 3159   2.092   1.362   2.343
 1054SOL    OW  3160   1.352   1.159   3.264
 1054SOL    HW1 3161   1.388   1.237   3.306
 1054SOL    HW2 3162   1.380   1.165   3.173
 1055SOL    OW  3163   1.469   1.161   3.016
 1055SOL    HW1 3164   1.434   1.154   2.927
 1055SOL    HW2 3165   1.520   1.242   3.016
 1056SOL    OW  3166   2.078   1.204   2.992
 1056SOL    HW1 3167   2.010   1.271   2.988
 1056SOL    HW2 3168   2.116   1.214   3.079
 1057SOL    OW  3169   2.259   1.181   3.215
 1057SOL    HW1 3170   2.237   1.238   3.289
 1057SOL    HW2 3171   2.348   1.206   3.191
 1058SOL    OW  3172   2.244   1.167   2.762
 1058SOL    HW1 3173   2.179   1.180   2.831
 1058SOL    HW2 3174   2.226   1.237   2.699
 1059SOL    OW  3175   1.334   1.175   3.962
 1059SOL    HW1 3176   1.238   1.172   3.957
 1059SOL    HW2 3177   1.363   1.101   3.909
 1060SOL    OW  3178   1.558   2.250   3.598
 1060SOL    HW1 3179   1.570   2.344   3.582
 1060SOL    HW2 3180   1.644   2.212   3.580
 1061SOL    OW  3181   2.013   2.507   3.571
 1061SOL    HW1 3182   2.079   2.513   3.501
 1061SOL    HW2 3183   2.014   2.415   3.596
 1062SOL    OW  3184   1.423   2.173   4.564
 1062SOL    HW1 3185   1.413   2.256   4.517
 1062SOL    HW2 3186   1.455   2.197   4.650
 1063SOL    OW  3187   1.425   2.145   3.832
 1063SOL    HW1 3188   1.494   2.085   3.861
 1063SOL    HW2 3189   1.465   2.195   3.761
 1064SOL    OW  3190   1.653   2.144   4.173
 1064SOL    HW1 3191   1.606   2.227   4.175
 1064SOL    HW2 3192   1.622   2.098   4.252
 1065SOL    OW  3193   2.084   2.400   4.195
 1065SOL    HW1 3194   2.136   2.396   4.276
 1065SOL    HW2 3195   2.020   2.469   4.211
 1066SOL    OW  3196   2.246   2.383   3.930
 1066SOL    HW1 3197   2.215   2.462   3.886
 1066SOL    HW2 3198   2.191   2.375   4.008
 1067SOL    OW  3199   2.163   2.634   4.583
 1067SOL    HW1 3200   2.106   2.587   4.644
 1067SOL    HW2 3201   2.235   2.666   4.636
 1068SOL    OW  3202   1.194   2.030   4.569
 1068SOL    HW1 3203   1.274   2.081   4.562
 1068SOL    HW2 3204   1.123   2.095   4.566
 1069SOL    OW  3205   1.617   1.972   3.954
 1069SOL    HW1 3206   1.636   2.036   4.023
 1069SOL    HW2 3207   1.565   1.905   3.998
 1070SOL    OW  3208   1.547   2.010   4.408
 1070SOL    HW1 3209   1.488   2.062   4.463
 1070SOL    HW2 3210   1.616   1.980   4.467
 1071SOL    OW  3211   2.024   2.234   3.572
 1071SOL    HW1 3212   1.945   2.181   3.583
 1071SOL    HW2 3213   2.063   2.203   3.490
 1072SOL    OW  3214   1.946   2.147   4.154
 1072SOL    HW1 3215   1.851   2.157   4.147
 1072SOL    HW2 3216   1.980   2.236   4.155
 1073SOL    OW  3217   2.164   2.147   3.792
 1073SOL    HW1 3218   2.113   2.179   3.718
 1073SOL    HW2 3219   2.193   2.226   3.838
 1074SOL    OW  3220   1.194   2.021   3.729
 1074SOL    HW1 3221   1.198   2.021   3.633
 1074SOL    HW2 3222   1.277   2.061   3.756
 1075SOL    OW  3223   1.802   1.889   3.770
 1075SOL    HW1 3224   1.740   1.928   3.831
 1075SOL    HW2 3225   1.888   1.911   3.807
 1076SOL    OW  3226   1.738   1.918   4.573
 1076SOL    HW1 3227   1.752   1.964   4.656
 1076SOL    HW2 3228   1.800   1.959   4.512
 1077SOL    OW  3229   1.180   1.767   3.855
 1077SOL    HW1 3230   1.163   1.852   3.814
 1077SOL    HW2 3231   1.266   1.777   3.896
 1078SOL    OW  3232   1.390   1.433   4.599
 1078SOL    HW1 3233   1.460   1.393   4.652
 1078SOL    HW2 3234   1.326   1.464   4.663
 1079SOL    OW  3235   1.412   1.781   4.014
 1079SOL    HW1 3236   1.404   1.779   4.110
 1079SOL    HW2 3237   1.462   1.702   3.993
 1080SOL    OW  3238   1.406   1.798   4.292
 1080SOL    HW1 3239   1.445   1.880   4.321
 1080SOL    HW2 3240   1.451   1.730   4.344
 1081SOL    OW  3241   2.014   1.963   3.941
 1081SOL    HW1 3242   2.065   2.020   3.884
 1081SOL    HW2 3243   1.988   2.020   4.014
 1082SOL    OW  3244   2.148   1.828   4.347
 1082SOL    HW1 3245   2.155   1.822   4.252
 1082SOL    HW2 3246   2.237   1.815   4.379
 1083SOL    OW  3247   1.763   1.645   4.573
 1083SOL    HW1 3248   1.754   1.737   4.595
 1083SOL    HW2 3249   1.766   1.600   4.657
 1084SOL    OW  3250   1.800   1.625   3.818
 1084SOL    HW1 3251   1.805   1.720   3.805
 1084SOL    HW2 3252   1.879   1.603   3.868
 1085SOL    OW  3253   1.201   1.539   3.711
 1085SOL    HW1 3254   1.214   1.616   3.767
 1085SOL    HW2 3255   1.274   1.481   3.734
 1086SOL    OW  3256   1.633   1.451   4.167
 1086SOL    HW1 3257   1.603   1.484   4.252
 1086SOL    HW2 3258   1.728   1.440   4.178
 1087SOL    OW  3259   1.530   1.554   3.937
 1087SOL    HW1 3260   1.570   1.522   4.018
 1087SOL    HW2 3261   1.604   1.579   3.882
 1088SOL    OW  3262   2.015   1.568   3.997
 1088SOL    HW1 3263   1.991   1.531   4.082
 1088SOL    HW2 3264   2.076   1.639   4.019
 1089SOL    OW  3265   2.010   1.612   4.442
 1089SOL    HW1 3266   1.941   1.642   4.501
 1089SOL    HW2 3267   2.055   1.692   4.415
 1090SOL    OW  3268   1.546   1.578   4.400
 1090SOL    HW1 3269   1.477   1.539   4.453
 1090SOL    HW2 3270   1.611   1.607   4.464
 1091SOL    OW  3271   1.399   1.373   3.782
 1091SOL    HW1 3272   1.370   1.299   3.835
 1091SOL    HW2 3273   1.442   1.432   3.844
 1092SOL    OW  3274   1.571   1.307   3.584
 1092SOL    HW1 3275   1.515   1.326   3.658
 1092SOL    HW2 3276   1.643   1.371   3.592
 1093SOL    OW  3277   1.912   1.465   4.236
 1093SOL    HW1 3278   1.945   1.513   4.312
 1093SOL    HW2 3279   1.962   1.384   4.236
 1094SOL    OW  3280   2.152   1.393   3.832
 1094SOL    HW1 3281   2.105   1.457   3.886
 1094SOL    HW2 3282   2.229   1.440   3.801
 1095SOL    OW  3283   2.143   1.419   4.588
 1095SOL    HW1 3284   2.096   1.483   4.534
 1095SOL    HW2 3285   2.205   1.472   4.639
 1096SOL    OW  3286   1.784   1.512   3.575
 1096SOL    HW1 3287   1.795   1.557   3.659
 1096SOL    HW2 3288   1.857   1.450   3.571
 1097SOL    OW  3289   2.159   1.768   4.074
 1097SOL    HW1 3290   2.111   1.828   4.017
 1097SOL    HW2 3291   2.245   1.761   4.033
 1098SOL    OW  3292   1.175   1.607   4.686
 1098SOL    HW1 3293   1.202   1.626   4.596
 1098SOL    HW2 3294   1.183   1.691   4.731
 1099SOL    OW  3295   1.979   1.319   3.620
 1099SOL    HW1 3296   2.031   1.340   3.698
 1099SOL    HW2 3297   2.038   1.337   3.547
 1100SOL    OW  3298   1.356   1.214   4.447
 1100SOL    HW1 3299   1.374   1.297   4.490
 1100SOL    HW2 3300   1.400   1.220   4.362
 1101SOL    OW  3301   1.505   1.202   4.186
 1101SOL    HW1 3302   1.448   1.190   4.109
 1101SOL    HW2 3303   1.546   1.287   4.172
 1102SOL    OW  3304   2.033   1.221   4.237
 1102SOL    HW1 3305   2.104   1.218   4.301
 1102SOL    HW2 3306   1.983   1.141   4.253
 1103SOL    OW  3307   2.235   1.198   4.444
 1103SOL    HW1 3308   2.226   1.275   4.501
 1103SOL    HW2 3309   2.329   1.191   4.429
 1104SOL    OW  3310   2.215   1.200   4.017
 1104SOL    HW1 3311   2.149   1.203   4.085
 1104SOL    HW2 3312   2.200   1.279   3.965
 1105SOL    OW  3313   1.337   1.197   5.151
 1105SOL    HW1 3314   1.245   1.202   5.178
 1105SOL    HW2 3315   1.347   1.109   5.117
 1106SOL    OW  3316   1.525   2.237   4.798
 1106SOL    HW1 3317   1.545   2.328   4.816
 1106SOL    HW2 3318   1.610   2.196   4.779
 1107SOL    OW  3319   1.977   2.218   4.781
 1107SOL    HW1 3320   2.028   2.195   4.704
 1107SOL    HW2 3321   1.967   2.313   4.775
 1108SOL    OW  3322   1.342   2.173   5.753
 1108SOL    HW1 3323   1.317   2.257   5.715
 1108SOL    HW2 3324   1.380   2.195   5.838
 1109SOL    OW  3325   1.414   2.193   5.035
 1109SOL    HW1 3326   1.471   2.145   5.094
 1109SOL    HW2 3327   1.457   2.187   4.949
 1110SOL    OW  3328   1.590   2.222   5.437
 1110SOL    HW1 3329   1.523   2.285   5.412
 1110SOL    HW2 3330   1.549   2.170   5.506
 1111SOL    OW  3331   1.880   2.173   5.408
 1111SOL    HW1 3332   1.789   2.200   5.421
 1111SOL    HW2 3333   1.927   2.255   5.395
 1112SOL    OW  3334   1.949   2.007   4.410
 1112SOL    HW1 3335   1.943   2.062   4.332
 1112SOL    HW2 3336   2.010   1.938   4.387
 1113SOL    OW  3337   1.952   1.992   5.611
 1113SOL    HW1 3338   1.993   2.047   5.679
 1113SOL    HW2 3339   1.916   2.055   5.549
 1114SOL    OW  3340   1.149   2.014   5.872
 1114SOL    HW1 3341   1.167   1.997   5.965
 1114SOL    HW2 3342   1.219   2.074   5.845
 1115SOL    OW  3343   1.546   2.054   5.209
 1115SOL    HW1 3344   1.561   2.088   5.297
 1115SOL    HW2 3345   1.519   1.963   5.223
 1116SOL    OW  3346   1.500   2.008   5.607
 1116SOL    HW1 3347   1.459   2.078   5.659
 1116SOL    HW2 3348   1.584   1.993   5.651
 1117SOL    OW  3349   1.727   2.072   4.792
 1117SOL    HW1 3350   1.740   2.015   4.867
 1117SOL    HW2 3351   1.811   2.115   4.780
 1118SOL    OW  3352   1.724   1.931   5.747
 1118SOL    HW1 3353   1.807   1.959   5.710
 1118SOL    HW2 3354   1.726   1.964   5.837
 1119SOL    OW  3355   1.985   2.026   5.174
 1119SOL    HW1 3356   1.946   2.077   5.244
 1119SOL    HW2 3357   2.052   1.973   5.217
 1120SOL    OW  3358   1.193   1.872   4.786
 1120SOL    HW1 3359   1.202   1.930   4.711
 1120SOL    HW2 3360   1.210   1.927   4.862
 1121SOL    OW  3361   1.767   1.934   5.032
 1121SOL    HW1 3362   1.697   1.959   5.092
 1121SOL    HW2 3363   1.847   1.952   5.080
 1122SOL    OW  3364   1.750   2.069   0.004
 1122SOL    HW1 3365   1.758   2.021   0.086
 1122SOL    HW2 3366   1.828   2.124   0.001
 1123SOL    OW  3367   1.188   1.558   4.970
 1123SOL    HW1 3368   1.181   1.646   5.007
 1123SOL    HW2 3369   1.137   1.563   4.888
 1124SOL    OW  3370   1.144   1.756   5.740
 1124SOL    HW1 3371   1.157   1.845   5.773
 1124SOL    HW2 3372   1.205   1.748   5.668
 1125SOL    OW  3373   1.411   1.818   5.274
 1125SOL    HW1 3374   1.467   1.740   5.266
 1125SOL    HW2 3375   1.371   1.808   5.360
 1126SOL    OW  3376   1.348   1.770   5.550
 1126SOL    HW1 3377   1.383   1.858   5.563
 1126SOL    HW2 3378   1.414   1.712   5.588
 1127SOL    OW  3379   2.162   1.831   5.237
 1127SOL    HW1 3380   2.154   1.806   5.329
 1127SOL    HW2 3381   2.254   1.819   5.216
 1128SOL    OW  3382   2.122   1.794   5.515
 1128SOL    HW1 3383   2.061   1.857   5.552
 1128SOL    HW2 3384   2.199   1.798   5.571
 1129SOL    OW  3385   1.738   1.655   5.743
 1129SOL    HW1 3386   1.724   1.746   5.769
 1129SOL    HW2 3387   1.747   1.608   5.826
 1130SOL    OW  3388   1.763   1.663   5.043
 1130SOL    HW1 3389   1.763   1.758   5.038
 1130SOL    HW2 3390   1.679   1.640   5.084
 1131SOL    OW  3391   1.189   1.796   5.103
 1131SOL    HW1 3392   1.271   1.820   5.148
 1131SOL    HW2 3393   1.125   1.787   5.174
 1132SOL    OW  3394   1.507   1.551   5.635
 1132SOL    HW1 3395   1.469   1.487   5.696
 1132SOL    HW2 3396   1.582   1.587   5.683
 1133SOL    OW  3397   1.543   1.588   5.178
 1133SOL    HW1 3398   1.493   1.530   5.120
 1133SOL    HW2 3399   1.571   1.532   5.250
 1134SOL    OW  3400   2.014   1.613   5.160
 1134SOL    HW1 3401   1.925   1.636   5.132
 1134SOL    HW2 3402   2.062   1.696   5.157
 1135SOL    OW  3403   1.992   1.556   5.635
 1135SOL    HW1 3404   1.919   1.584   5.690
 1135SOL    HW2 3405   2.034   1.638   5.607
 1136SOL    OW  3406   1.395   1.338   5.769
 1136SOL    HW1 3407   1.322   1.396   5.793
 1136SOL    HW2 3408   1.447   1.331   5.848
 1137SOL    OW  3409   1.410   1.425   5.006
 1137SOL    HW1 3410   1.323   1.459   4.983
 1137SOL    HW2 3411   1.392   1.351   5.065
 1138SOL    OW  3412   1.560   1.335   4.806
 1138SOL    HW1 3413   1.502   1.368   4.874
 1138SOL    HW2 3414   1.635   1.396   4.807
 1139SOL    OW  3415   1.627   1.429   5.374
 1139SOL    HW1 3416   1.721   1.410   5.373
 1139SOL    HW2 3417   1.611   1.466   5.461
 1140SOL    OW  3418   2.185   1.421   5.035
 1140SOL    HW1 3419   2.126   1.486   5.074
 1140SOL    HW2 3420   2.261   1.471   5.006
 1141SOL    OW  3421   2.177   1.410   5.771
 1141SOL    HW1 3422   2.120   1.477   5.732
 1141SOL    HW2 3423   2.251   1.460   5.807
 1142SOL    OW  3424   1.789   1.513   4.811
 1142SOL    HW1 3425   1.795   1.554   4.897
 1142SOL    HW2 3426   1.860   1.448   4.811
 1143SOL    OW  3427   2.109   1.200   5.384
 1143SOL    HW1 3428   2.059   1.282   5.391
 1143SOL    HW2 3429   2.165   1.199   5.462
 1144SOL    OW  3430   1.184   1.494   5.842
 1144SOL    HW1 3431   1.206   1.502   5.935
 1144SOL    HW2 3432   1.154   1.581   5.818
 1145SOL    OW  3433   2.022   1.345   4.817
 1145SOL    HW1 3434   2.084   1.357   4.888
 1145SOL    HW2 3435   2.073   1.364   4.738
 1146SOL    OW  3436   1.325   1.149   5.589
 1146SOL    HW1 3437   1.352   1.210   5.658
 1146SOL    HW2 3438   1.373   1.176   5.512
 1147SOL    OW  3439   1.497   1.184   5.384
 1147SOL    HW1 3440   1.448   1.195   5.303
 1147SOL    HW2 3441   1.550   1.263   5.391
 1148SOL    OW  3442   1.927   1.437   5.387
 1148SOL    HW1 3443   1.945   1.500   5.317
 1148SOL    HW2 3444   1.942   1.485   5.468
 1149SOL    OW  3445   2.237   1.210   5.603
 1149SOL    HW1 3446   2.205   1.280   5.660
 1149SOL    HW2 3447   2.332   1.221   5.602
 1150SOL    OW  3448   2.239   1.180   5.161
 1150SOL    HW1 3449   2.195   1.176   5.247
 1150SOL    HW2 3450   2.220   1.268   5.129
 1151SOL    OW  3451   1.292   2.405   0.326
 1151SOL    HW1 3452   1.198   2.421   0.336
 1151SOL    HW2 3453   1.297   2.320   0.282
 1152SOL    OW  3454   1.557   3.451   0.005
 1152SOL    HW1 3455   1.590   3.539   0.024
 1152SOL    HW2 3456   1.635   3.398  -0.007
 1153SOL    OW  3457   2.005   3.432   5.965
 1153SOL    HW1 3458   1.991   3.522   5.995
 1153SOL    HW2 3459   2.070   3.441   5.895
 1154SOL    OW  3460   1.425   3.398   0.976
 1154SOL    HW1 3461   1.401   3.478   0.929
 1154SOL    HW2 3462   1.456   3.428   1.061
 1155SOL    OW  3463   1.416   3.409   0.222
 1155SOL    HW1 3464   1.445   3.330   0.268
 1155SOL    HW2 3465   1.473   3.415   0.146
 1156SOL    OW  3466   1.651   3.344   0.609
 1156SOL    HW1 3467   1.592   3.418   0.627
 1156SOL    HW2 3468   1.639   3.285   0.684
 1157SOL    OW  3469   1.941   3.346   0.603
 1157SOL    HW1 3470   1.856   3.385   0.583
 1157SOL    HW2 3471   2.002   3.420   0.598
 1158SOL    OW  3472   2.176   3.371   0.209
 1158SOL    HW1 3473   2.238   3.312   0.166
 1158SOL    HW2 3474   2.116   3.397   0.139
 1159SOL    OW  3475   2.172   3.332   0.990
 1159SOL    HW1 3476   2.200   3.411   0.945
 1159SOL    HW2 3477   2.253   3.286   1.012
 1160SOL    OW  3478   1.218   3.203   1.045
 1160SOL    HW1 3479   1.206   3.219   1.139
 1160SOL    HW2 3480   1.297   3.253   1.022
 1161SOL    OW  3481   1.606   3.225   0.352
 1161SOL    HW1 3482   1.629   3.280   0.426
 1161SOL    HW2 3483   1.545   3.160   0.387
 1162SOL    OW  3484   1.556   3.197   0.839
 1162SOL    HW1 3485   1.518   3.266   0.892
 1162SOL    HW2 3486   1.621   3.156   0.896
 1163SOL    OW  3487   1.780   3.274   5.975
 1163SOL    HW1 3488   1.780   3.217   6.052
 1163SOL    HW2 3489   1.863   3.322   5.980
 1164SOL    OW  3490   1.973   3.216   0.839
 1164SOL    HW1 3491   1.982   3.262   0.755
 1164SOL    HW2 3492   2.041   3.255   0.895
 1165SOL    OW  3493   2.024   3.204   0.373
 1165SOL    HW1 3494   1.978   3.246   0.446
 1165SOL    HW2 3495   2.075   3.274   0.333
 1166SOL    OW  3496   1.204   3.243   0.118
 1166SOL    HW1 3497   1.125   3.280   0.158
 1166SOL    HW2 3498   1.271   3.310   0.132
 1167SOL    OW  3499   1.811   3.136   0.207
 1167SOL    HW1 3500   1.739   3.156   0.266
 1167SOL    HW2 3501   1.890   3.160   0.255
 1168SOL    OW  3502   1.763   3.102   1.001
 1168SOL    HW1 3503   1.753   3.154   1.080
 1168SOL    HW2 3504   1.831   3.147   0.951
 1169SOL    OW  3505   1.204   2.997   0.256
 1169SOL    HW1 3506   1.208   3.083   0.215
 1169SOL    HW2 3507   1.128   3.001   0.313
 1170SOL    OW  3508   1.192   2.978   0.896
 1170SOL    HW1 3509   1.188   3.056   0.951
 1170SOL    HW2 3510   1.255   3.001   0.827
 1171SOL    OW  3511   1.424   3.015   0.421
 1171SOL    HW1 3512   1.338   3.001   0.382
 1171SOL    HW2 3513   1.408   3.008   0.515
 1172SOL    OW  3514   1.382   2.985   0.700
 1172SOL    HW1 3515   1.440   3.042   0.751
 1172SOL    HW2 3516   1.420   2.897   0.709
 1173SOL    OW  3517   2.118   2.953   0.446
 1173SOL    HW1 3518   2.092   3.040   0.415
 1173SOL    HW2 3519   2.146   2.967   0.536
 1174SOL    OW  3520   2.163   3.023   0.731
 1174SOL    HW1 3521   2.119   3.099   0.769
 1174SOL    HW2 3522   2.245   3.015   0.781
 1175SOL    OW  3523   1.761   2.811   0.957
 1175SOL    HW1 3524   1.767   2.906   0.969
 1175SOL    HW2 3525   1.757   2.776   1.046
 1176SOL    OW  3526   1.773   2.862   0.178
 1176SOL    HW1 3527   1.698   2.846   0.236
 1176SOL    HW2 3528   1.792   2.955   0.189
 1177SOL    OW  3529   1.170   2.747   0.138
 1177SOL    HW1 3530   1.191   2.836   0.165
 1177SOL    HW2 3531   1.253   2.701   0.140
 1178SOL    OW  3532   1.543   2.749   0.797
 1178SOL    HW1 3533   1.472   2.701   0.840
 1178SOL    HW2 3534   1.610   2.758   0.864
 1179SOL    OW  3535   1.568   2.808   0.340
 1179SOL    HW1 3536   1.531   2.889   0.376
 1179SOL    HW2 3537   1.583   2.752   0.417
 1180SOL    OW  3538   1.948   2.745   0.362
 1180SOL    HW1 3539   1.887   2.772   0.293
 1180SOL    HW2 3540   1.995   2.826   0.385
 1181SOL    OW  3541   1.988   2.799   0.798
 1181SOL    HW1 3542   1.905   2.828   0.838
 1181SOL    HW2 3543   2.032   2.880   0.773
 1182SOL    OW  3544   1.351   2.592   0.929
 1182SOL    HW1 3545   1.293   2.654   0.974
 1182SOL    HW2 3546   1.402   2.552   0.999
 1183SOL    OW  3547   1.416   2.620   0.194
 1183SOL    HW1 3548   1.368   2.561   0.253
 1183SOL    HW2 3549   1.464   2.678   0.253
 1184SOL    OW  3550   1.564   2.491   5.989
 1184SOL    HW1 3551   1.516   2.522   6.065
 1184SOL    HW2 3552   1.636   2.553   5.979
 1185SOL    OW  3553   1.619   2.639   0.570
 1185SOL    HW1 3554   1.609   2.692   0.649
 1185SOL    HW2 3555   1.711   2.612   0.571
 1186SOL    OW  3556   2.359   2.765   0.106
 1186SOL    HW1 3557   2.438   2.713   0.123
 1186SOL    HW2 3558   2.288   2.712   0.141
 1187SOL    OW  3559   2.134   2.628   0.957
 1187SOL    HW1 3560   2.074   2.688   0.913
 1187SOL    HW2 3561   2.215   2.678   0.965
 1188SOL    OW  3562   1.779   2.683   5.969
 1188SOL    HW1 3563   1.757   2.744   6.039
 1188SOL    HW2 3564   1.866   2.650   5.992
 1189SOL    OW  3565   1.888   2.603   0.590
 1189SOL    HW1 3566   1.933   2.654   0.656
 1189SOL    HW2 3567   1.901   2.652   0.508
 1190SOL    OW  3568   1.140   2.741   1.052
 1190SOL    HW1 3569   1.143   2.770   1.144
 1190SOL    HW2 3570   1.153   2.821   1.002
 1191SOL    OW  3571   1.996   2.543   0.027
 1191SOL    HW1 3572   1.955   2.456   0.025
 1191SOL    HW2 3573   2.045   2.548  -0.055
 1192SOL    OW  3574   1.298   2.377   0.769
 1192SOL    HW1 3575   1.321   2.443   0.834
 1192SOL    HW2 3576   1.354   2.396   0.694
 1193SOL    OW  3577   1.475   2.352   0.547
 1193SOL    HW1 3578   1.426   2.362   0.465
 1193SOL    HW2 3579   1.542   2.421   0.543
 1194SOL    OW  3580   2.035   2.378   0.541
 1194SOL    HW1 3581   2.106   2.387   0.604
 1194SOL    HW2 3582   1.975   2.450   0.562
 1195SOL    OW  3583   2.202   2.424   0.777
 1195SOL    HW1 3584   2.181   2.497   0.836
 1195SOL    HW2 3585   2.295   2.408   0.791
 1196SOL    OW  3586   2.223   2.409   0.344
 1196SOL    HW1 3587   2.160   2.400   0.415
 1196SOL    HW2 3588   2.195   2.487   0.296
 1197SOL    OW  3589   1.346   2.362   1.524
 1197SOL    HW1 3590   1.390   2.354   1.609
 1197SOL    HW2 3591   1.254   2.375   1.547
 1198SOL    OW  3592   1.546   3.479   1.200
 1198SOL    HW1 3593   1.545   3.573   1.217
 1198SOL    HW2 3594   1.636   3.452   1.219
 1199SOL    OW  3595   2.022   3.451   1.226
 1199SOL    HW1 3596   2.028   3.538   1.187
 1199SOL    HW2 3597   2.060   3.392   1.161
 1200SOL    OW  3598   1.182   3.171   2.239
 1200SOL    HW1 3599   1.258   3.225   2.218
 1200SOL    HW2 3600   1.187   3.158   2.334
 1201SOL    OW  3601   1.386   3.394   1.389
 1201SOL    HW1 3602   1.437   3.353   1.459
 1201SOL    HW2 3603   1.449   3.407   1.318
 1202SOL    OW  3604   1.651   3.359   1.810
 1202SOL    HW1 3605   1.591   3.434   1.815
 1202SOL    HW2 3606   1.625   3.303   1.883
 1203SOL    OW  3607   1.923   3.356   1.799
 1203SOL    HW1 3608   1.828   3.348   1.796
 1203SOL    HW2 3609   1.953   3.313   1.719
 1204SOL    OW  3610   2.193   3.388   1.446
 1204SOL    HW1 3611   2.227   3.461   1.497
 1204SOL    HW2 3612   2.133   3.428   1.383
 1205SOL    OW  3613   2.172   3.368   2.168
 1205SOL    HW1 3614   2.209   3.445   2.124
 1205SOL    HW2 3615   2.246   3.307   2.177
 1206SOL    OW  3616   0.968   3.360   2.189
 1206SOL    HW1 3617   1.047   3.311   2.213
 1206SOL    HW2 3618   0.999   3.429   2.131
 1207SOL    OW  3619   1.549   3.248   1.586
 1207SOL    HW1 3620   1.578   3.301   1.660
 1207SOL    HW2 3621   1.526   3.163   1.623
 1208SOL    OW  3622   1.788   3.157   2.157
 1208SOL    HW1 3623   1.875   3.166   2.118
 1208SOL    HW2 3624   1.765   3.066   2.142
 1209SOL    OW  3625   1.771   3.327   1.225
 1209SOL    HW1 3626   1.754   3.269   1.300
 1209SOL    HW2 3627   1.856   3.366   1.243
 1210SOL    OW  3628   2.019   3.231   2.014
 1210SOL    HW1 3629   1.988   3.283   1.940
 1210SOL    HW2 3630   2.065   3.293   2.070
 1211SOL    OW  3631   2.002   3.239   1.556
 1211SOL    HW1 3632   2.064   3.289   1.505
 1211SOL    HW2 3633   2.050   3.161   1.584
 1212SOL    OW  3634   1.195   3.219   1.315
 1212SOL    HW1 3635   1.113   3.247   1.355
 1212SOL    HW2 3636   1.252   3.296   1.318
 1213SOL    OW  3637   1.770   3.162   1.442
 1213SOL    HW1 3638   1.699   3.186   1.502
 1213SOL    HW2 3639   1.850   3.187   1.489
 1214SOL    OW  3640   1.812   3.308   2.404
 1214SOL    HW1 3641   1.791   3.236   2.464
 1214SOL    HW2 3642   1.796   3.271   2.316
 1215SOL    OW  3643   1.235   3.006   1.480
 1215SOL    HW1 3644   1.226   3.082   1.423
 1215SOL    HW2 3645   1.315   3.024   1.531
 1216SOL    OW  3646   1.192   2.942   2.080
 1216SOL    HW1 3647   1.122   2.909   2.025
 1216SOL    HW2 3648   1.153   3.017   2.126
 1217SOL    OW  3649   1.456   3.001   1.650
 1217SOL    HW1 3650   1.434   2.999   1.743
 1217SOL    HW2 3651   1.477   2.910   1.628
 1218SOL    OW  3652   1.378   3.352   2.197
 1218SOL    HW1 3653   1.347   3.431   2.154
 1218SOL    HW2 3654   1.429   3.383   2.272
 1219SOL    OW  3655   2.128   3.012   1.655
 1219SOL    HW1 3656   2.163   3.007   1.745
 1219SOL    HW2 3657   2.206   3.018   1.600
 1220SOL    OW  3658   2.156   3.003   1.923
 1220SOL    HW1 3659   2.117   3.089   1.943
 1220SOL    HW2 3660   2.226   2.993   1.987
 1221SOL    OW  3661   1.784   2.868   2.072
 1221SOL    HW1 3662   1.767   2.838   2.161
 1221SOL    HW2 3663   1.708   2.838   2.021
 1222SOL    OW  3664   1.748   2.856   1.430
 1222SOL    HW1 3665   1.752   2.951   1.417
 1222SOL    HW2 3666   1.836   2.832   1.460
 1223SOL    OW  3667   1.175   2.755   1.354
 1223SOL    HW1 3668   1.206   2.840   1.386
 1223SOL    HW2 3669   1.253   2.700   1.350
 1224SOL    OW  3670   1.562   2.753   1.965
 1224SOL    HW1 3671   1.510   2.699   2.025
 1224SOL    HW2 3672   1.515   2.836   1.959
 1225SOL    OW  3673   1.535   2.752   1.557
 1225SOL    HW1 3674   1.582   2.687   1.609
 1225SOL    HW2 3675   1.603   2.806   1.518
 1226SOL    OW  3676   1.999   2.745   1.561
 1226SOL    HW1 3677   1.961   2.703   1.638
 1226SOL    HW2 3678   2.033   2.828   1.594
 1227SOL    OW  3679   2.014   2.749   2.004
 1227SOL    HW1 3680   1.938   2.805   2.021
 1227SOL    HW2 3681   2.084   2.810   1.978
 1228SOL    OW  3682   1.416   2.995   1.943
 1228SOL    HW1 3683   1.463   3.073   1.971
 1228SOL    HW2 3684   1.330   3.002   1.984
 1229SOL    OW  3685   1.390   2.598   1.390
 1229SOL    HW1 3686   1.375   2.513   1.432
 1229SOL    HW2 3687   1.428   2.652   1.459
 1230SOL    OW  3688   1.498   2.559   1.154
 1230SOL    HW1 3689   1.455   2.574   1.238
 1230SOL    HW2 3690   1.587   2.594   1.165
 1231SOL    OW  3691   1.632   2.587   1.759
 1231SOL    HW1 3692   1.609   2.644   1.832
 1231SOL    HW2 3693   1.727   2.578   1.764
 1232SOL    OW  3694   2.160   2.602   1.405
 1232SOL    HW1 3695   2.107   2.662   1.457
 1232SOL    HW2 3696   2.110   2.588   1.325
 1233SOL    OW  3697   2.163   2.608   2.166
 1233SOL    HW1 3698   2.115   2.677   2.119
 1233SOL    HW2 3699   2.231   2.655   2.214
 1234SOL    OW  3700   1.754   2.692   1.211
 1234SOL    HW1 3701   1.732   2.731   1.296
 1234SOL    HW2 3702   1.828   2.634   1.231
 1235SOL    OW  3703   1.921   2.594   1.784
 1235SOL    HW1 3704   1.994   2.532   1.790
 1235SOL    HW2 3705   1.932   2.650   1.861
 1236SOL    OW  3706   1.214   2.736   2.255
 1236SOL    HW1 3707   1.235   2.753   2.347
 1236SOL    HW2 3708   1.220   2.821   2.213
 1237SOL    OW  3709   2.009   2.543   1.191
 1237SOL    HW1 3710   2.016   2.449   1.173
 1237SOL    HW2 3711   2.057   2.585   1.120
 1238SOL    OW  3712   1.315   2.373   1.995
 1238SOL    HW1 3713   1.333   2.466   2.010
 1238SOL    HW2 3714   1.356   2.354   1.911
 1239SOL    OW  3715   1.464   2.347   1.774
 1239SOL    HW1 3716   1.534   2.282   1.771
 1239SOL    HW2 3717   1.509   2.431   1.764
 1240SOL    OW  3718   2.094   2.360   1.798
 1240SOL    HW1 3719   2.045   2.278   1.801
 1240SOL    HW2 3720   2.153   2.354   1.874
 1241SOL    OW  3721   2.247   2.373   2.028
 1241SOL    HW1 3722   2.227   2.454   2.074
 1241SOL    HW2 3723   2.342   2.365   2.033
 1242SOL    OW  3724   2.249   2.401   1.570
 1242SOL    HW1 3725   2.194   2.386   1.647
 1242SOL    HW2 3726   2.224   2.489   1.540
 1243SOL    OW  3727   1.362   2.395   2.714
 1243SOL    HW1 3728   1.266   2.397   2.714
 1243SOL    HW2 3729   1.384   2.315   2.668
 1244SOL    OW  3730   1.551   3.421   2.414
 1244SOL    HW1 3731   1.565   3.516   2.417
 1244SOL    HW2 3732   1.638   3.384   2.418
 1245SOL    OW  3733   2.017   0.149   2.392
 1245SOL    HW1 3734   2.086   0.161   2.456
 1245SOL    HW2 3735   2.005   0.054   2.386
 1246SOL    OW  3736   1.402   3.378   3.385
 1246SOL    HW1 3737   1.380   3.454   3.332
 1246SOL    HW2 3738   1.461   3.411   3.452
 1247SOL    OW  3739   1.383   3.339   2.627
 1247SOL    HW1 3740   1.438   3.293   2.690
 1247SOL    HW2 3741   1.442   3.359   2.554
 1248SOL    OW  3742   1.651   3.354   2.976
 1248SOL    HW1 3743   1.614   3.439   3.001
 1248SOL    HW2 3744   1.645   3.301   3.055
 1249SOL    OW  3745   2.020   3.166   3.193
 1249SOL    HW1 3746   2.086   3.228   3.226
 1249SOL    HW2 3747   1.970   3.217   3.129
 1250SOL    OW  3748   2.165   3.367   2.593
 1250SOL    HW1 3749   2.107   3.312   2.646
 1250SOL    HW2 3750   2.109   3.405   2.527
 1251SOL    OW  3751   2.189   3.364   3.308
 1251SOL    HW1 3752   2.233   3.444   3.280
 1251SOL    HW2 3753   2.252   3.321   3.366
 1252SOL    OW  3754   0.962   3.278   3.744
 1252SOL    HW1 3755   0.915   3.282   3.827
 1252SOL    HW2 3756   0.910   3.330   3.683
 1253SOL    OW  3757   1.565   3.181   2.763
 1253SOL    HW1 3758   1.589   3.242   2.832
 1253SOL    HW2 3759   1.507   3.118   2.805
 1254SOL    OW  3760   1.564   3.210   3.211
 1254SOL    HW1 3761   1.509   3.268   3.264
 1254SOL    HW2 3762   1.641   3.195   3.265
 1255SOL    OW  3763   2.023   3.470   2.390
 1255SOL    HW1 3764   1.942   3.424   2.411
 1255SOL    HW2 3765   2.056   3.426   2.312
 1256SOL    OW  3766   2.109   2.966   2.801
 1256SOL    HW1 3767   2.136   2.953   2.892
 1256SOL    HW2 3768   2.189   2.991   2.756
 1257SOL    OW  3769   1.990   3.203   2.748
 1257SOL    HW1 3770   1.964   3.246   2.830
 1257SOL    HW2 3771   2.034   3.123   2.776
 1258SOL    OW  3772   1.193   3.166   2.530
 1258SOL    HW1 3773   1.117   3.214   2.562
 1258SOL    HW2 3774   1.268   3.211   2.569
 1259SOL    OW  3775   1.764   3.101   2.586
 1259SOL    HW1 3776   1.701   3.126   2.653
 1259SOL    HW2 3777   1.849   3.122   2.623
 1260SOL    OW  3778   1.792   3.123   3.338
 1260SOL    HW1 3779   1.805   3.173   3.418
 1260SOL    HW2 3780   1.877   3.127   3.293
 1261SOL    OW  3781   1.193   2.969   2.713
 1261SOL    HW1 3782   1.188   3.044   2.654
 1261SOL    HW2 3783   1.273   2.984   2.764
 1262SOL    OW  3784   1.174   2.952   3.278
 1262SOL    HW1 3785   1.099   2.957   3.219
 1262SOL    HW2 3786   1.250   2.943   3.221
 1263SOL    OW  3787   1.423   2.969   2.866
 1263SOL    HW1 3788   1.413   2.972   2.961
 1263SOL    HW2 3789   1.432   2.876   2.845
 1264SOL    OW  3790   1.421   2.978   3.132
 1264SOL    HW1 3791   1.465   3.061   3.149
 1264SOL    HW2 3792   1.487   2.912   3.155
 1265SOL    OW  3793   1.973   2.731   2.753
 1265SOL    HW1 3794   2.017   2.812   2.777
 1265SOL    HW2 3795   1.977   2.677   2.833
 1266SOL    OW  3796   2.601   2.959   2.802
 1266SOL    HW1 3797   2.595   2.955   2.897
 1266SOL    HW2 3798   2.657   3.034   2.784
 1267SOL    OW  3799   1.812   2.814   3.360
 1267SOL    HW1 3800   1.807   2.909   3.351
 1267SOL    HW2 3801   1.780   2.797   3.449
 1268SOL    OW  3802   1.811   2.734   2.332
 1268SOL    HW1 3803   1.799   2.761   2.423
 1268SOL    HW2 3804   1.885   2.673   2.335
 1269SOL    OW  3805   1.195   2.760   2.524
 1269SOL    HW1 3806   1.199   2.836   2.583
 1269SOL    HW2 3807   1.275   2.712   2.542
 1270SOL    OW  3808   1.620   2.752   3.186
 1270SOL    HW1 3809   1.569   2.692   3.240
 1270SOL    HW2 3810   1.698   2.771   3.237
 1271SOL    OW  3811   1.525   2.736   2.773
 1271SOL    HW1 3812   1.551   2.663   2.829
 1271SOL    HW2 3813   1.602   2.755   2.720
 1272SOL    OW  3814   1.751   2.813   2.593
 1272SOL    HW1 3815   1.821   2.779   2.648
 1272SOL    HW2 3816   1.772   2.906   2.582
 1273SOL    OW  3817   2.009   2.729   3.189
 1273SOL    HW1 3818   1.948   2.767   3.253
 1273SOL    HW2 3819   2.051   2.805   3.148
 1274SOL    OW  3820   1.203   2.715   3.426
 1274SOL    HW1 3821   1.187   2.735   3.518
 1274SOL    HW2 3822   1.200   2.800   3.382
 1275SOL    OW  3823   1.424   2.627   2.557
 1275SOL    HW1 3824   1.401   2.542   2.593
 1275SOL    HW2 3825   1.462   2.675   2.631
 1276SOL    OW  3826   1.436   2.588   2.125
 1276SOL    HW1 3827   1.367   2.626   2.180
 1276SOL    HW2 3828   1.503   2.560   2.187
 1277SOL    OW  3829   1.685   2.590   2.957
 1277SOL    HW1 3830   1.684   2.647   3.034
 1277SOL    HW2 3831   1.763   2.536   2.968
 1278SOL    OW  3832   2.179   2.610   2.611
 1278SOL    HW1 3833   2.107   2.653   2.657
 1278SOL    HW2 3834   2.244   2.679   2.598
 1279SOL    OW  3835   2.158   2.579   3.351
 1279SOL    HW1 3836   2.112   2.640   3.293
 1279SOL    HW2 3837   2.223   2.633   3.395
 1280SOL    OW  3838   1.586   2.530   2.364
 1280SOL    HW1 3839   1.552   2.574   2.442
 1280SOL    HW2 3840   1.663   2.582   2.339
 1281SOL    OW  3841   1.977   2.574   2.983
 1281SOL    HW1 3842   1.981   2.628   3.062
 1281SOL    HW2 3843   2.032   2.498   3.003
 1282SOL    OW  3844   1.462   2.599   3.343
 1282SOL    HW1 3845   1.381   2.634   3.381
 1282SOL    HW2 3846   1.518   2.581   3.419
 1283SOL    OW  3847   2.029   2.547   2.388
 1283SOL    HW1 3848   2.081   2.578   2.462
 1283SOL    HW2 3849   2.071   2.585   2.311
 1284SOL    OW  3850   1.348   2.398   3.202
 1284SOL    HW1 3851   1.393   2.468   3.249
 1284SOL    HW2 3852   1.392   2.394   3.117
 1285SOL    OW  3853   1.502   2.380   2.969
 1285SOL    HW1 3854   1.472   2.381   2.878
 1285SOL    HW2 3855   1.552   2.461   2.979
 1286SOL    OW  3856   2.131   2.336   2.975
 1286SOL    HW1 3857   2.182   2.325   3.055
 1286SOL    HW2 3858   2.076   2.258   2.971
 1287SOL    OW  3859   2.293   2.363   3.224
 1287SOL    HW1 3860   2.266   2.445   3.267
 1287SOL    HW2 3861   2.387   2.376   3.208
 1288SOL    OW  3862   2.284   2.365   2.745
 1288SOL    HW1 3863   2.233   2.365   2.825
 1288SOL    HW2 3864   2.238   2.425   2.686
 1289SOL    OW  3865   1.510   2.382   4.217
 1289SOL    HW1 3866   1.449   2.382   4.290
 1289SOL    HW2 3867   1.456   2.363   4.140
 1290SOL    OW  3868   1.583   3.475   3.592
 1290SOL    HW1 3869   1.613   3.565   3.608
 1290SOL    HW2 3870   1.663   3.423   3.597
 1291SOL    OW  3871   2.040   3.450   3.574
 1291SOL    HW1 3872   2.023   3.544   3.575
 1291SOL    HW2 3873   2.079   3.434   3.488
 1292SOL    OW  3874   1.354   3.379   4.556
 1292SOL    HW1 3875   1.344   3.460   4.506
 1292SOL    HW2 3876   1.420   3.329   4.508
 1293SOL    OW  3877   1.330   3.192   3.660
 1293SOL    HW1 3878   1.364   3.275   3.694
 1293SOL    HW2 3879   1.284   3.216   3.580
 1294SOL    OW  3880   1.923   3.368   4.201
 1294SOL    HW1 3881   1.954   3.303   4.264
 1294SOL    HW2 3882   1.969   3.348   4.120
 1295SOL    OW  3883   2.165   2.994   4.298
 1295SOL    HW1 3884   2.119   3.068   4.339
 1295SOL    HW2 3885   2.244   2.983   4.351
 1296SOL    OW  3886   2.373   3.216   3.714
 1296SOL    HW1 3887   2.450   3.247   3.763
 1296SOL    HW2 3888   2.299   3.262   3.753
 1297SOL    OW  3889   2.076   0.009   4.219
 1297SOL    HW1 3890   2.027  -0.074   4.211
 1297SOL    HW2 3891   2.130  -0.004   4.297
 1298SOL    OW  3892   1.154   3.207   4.623
 1298SOL    HW1 3893   1.155   3.208   4.719
 1298SOL    HW2 3894   1.228   3.261   4.597
 1299SOL    OW  3895   1.632   3.339   4.181
 1299SOL    HW1 3896   1.725   3.355   4.194
 1299SOL    HW2 3897   1.592   3.426   4.182
 1300SOL    OW  3898   1.546   3.206   4.420
 1300SOL    HW1 3899   1.629   3.170   4.450
 1300SOL    HW2 3900   1.561   3.230   4.329
 1301SOL    OW  3901   1.795   3.307   3.583
 1301SOL    HW1 3902   1.794   3.242   3.652
 1301SOL    HW2 3903   1.879   3.351   3.592
 1302SOL    OW  3904   2.009   3.196   4.399
 1302SOL    HW1 3905   2.081   3.241   4.442
 1302SOL    HW2 3906   1.951   3.170   4.471
 1303SOL    OW  3907   2.012   3.223   3.973
 1303SOL    HW1 3908   2.057   3.278   3.909
 1303SOL    HW2 3909   2.064   3.143   3.977
 1304SOL    OW  3910   1.186   3.209   3.422
 1304SOL    HW1 3911   1.265   3.257   3.399
 1304SOL    HW2 3912   1.205   3.118   3.402
 1305SOL    OW  3913   1.788   3.151   3.819
 1305SOL    HW1 3914   1.705   3.182   3.855
 1305SOL    HW2 3915   1.853   3.170   3.887
 1306SOL    OW  3916   1.773   3.243   4.777
 1306SOL    HW1 3917   1.704   3.309   4.790
 1306SOL    HW2 3918   1.771   3.190   4.857
 1307SOL    OW  3919   1.186   3.085   3.996
 1307SOL    HW1 3920   1.193   3.179   3.978
 1307SOL    HW2 3921   1.182   3.044   3.910
 1308SOL    OW  3922   1.170   2.948   4.527
 1308SOL    HW1 3923   1.149   3.037   4.553
 1308SOL    HW2 3924   1.251   2.956   4.476
 1309SOL    OW  3925   1.559   3.218   3.939
 1309SOL    HW1 3926   1.524   3.135   3.970
 1309SOL    HW2 3927   1.591   3.262   4.018
 1310SOL    OW  3928   1.444   3.001   4.045
 1310SOL    HW1 3929   1.440   3.004   4.141
 1310SOL    HW2 3930   1.355   3.021   4.016
 1311SOL    OW  3931   2.018   2.785   3.955
 1311SOL    HW1 3932   1.988   2.729   4.026
 1311SOL    HW2 3933   2.084   2.842   3.995
 1312SOL    OW  3934   2.404   3.194   4.649
 1312SOL    HW1 3935   2.416   3.187   4.744
 1312SOL    HW2 3936   2.473   3.254   4.620
 1313SOL    OW  3937   1.792   3.127   4.542
 1313SOL    HW1 3938   1.789   3.164   4.630
 1313SOL    HW2 3939   1.803   3.033   4.556
 1314SOL    OW  3940   0.950   2.625   3.814
 1314SOL    HW1 3941   1.025   2.660   3.765
 1314SOL    HW2 3942   0.985   2.551   3.863
 1315SOL    OW  3943   1.179   2.735   3.712
 1315SOL    HW1 3944   1.255   2.698   3.757
 1315SOL    HW2 3945   1.183   2.829   3.732
 1316SOL    OW  3946   1.392   2.997   4.329
 1316SOL    HW1 3947   1.440   2.921   4.363
 1316SOL    HW2 3948   1.437   3.072   4.367
 1317SOL    OW  3949   1.550   2.783   3.956
 1317SOL    HW1 3950   1.523   2.866   3.996
 1317SOL    HW2 3951   1.634   2.803   3.914
 1318SOL    OW  3952   1.527   2.772   4.425
 1318SOL    HW1 3953   1.546   2.718   4.347
 1318SOL    HW2 3954   1.491   2.710   4.488
 1319SOL    OW  3955   1.930   2.620   4.173
 1319SOL    HW1 3956   1.836   2.602   4.184
 1319SOL    HW2 3957   1.954   2.668   4.253
 1320SOL    OW  3958   1.442   2.599   4.622
 1320SOL    HW1 3959   1.361   2.628   4.664
 1320SOL    HW2 3960   1.495   2.566   4.695
 1321SOL    OW  3961   1.398   2.618   3.831
 1321SOL    HW1 3962   1.377   2.538   3.880
 1321SOL    HW2 3963   1.461   2.664   3.886
 1322SOL    OW  3964   1.566   2.553   3.610
 1322SOL    HW1 3965   1.518   2.586   3.685
 1322SOL    HW2 3966   1.650   2.599   3.614
 1323SOL    OW  3967   1.156   3.008   3.753
 1323SOL    HW1 3968   1.078   3.050   3.717
 1323SOL    HW2 3969   1.229   3.055   3.712
 1324SOL    OW  3970   1.784   2.867   3.834
 1324SOL    HW1 3971   1.786   2.962   3.818
 1324SOL    HW2 3972   1.870   2.848   3.872
 1325SOL    OW  3973   2.012   2.762   4.384
 1325SOL    HW1 3974   2.063   2.700   4.437
 1325SOL    HW2 3975   2.075   2.830   4.359
 1326SOL    OW  3976   1.799   2.697   3.623
 1326SOL    HW1 3977   1.824   2.751   3.699
 1326SOL    HW2 3978   1.874   2.640   3.608
 1327SOL    OW  3979   1.799   2.843   4.560
 1327SOL    HW1 3980   1.716   2.822   4.517
 1327SOL    HW2 3981   1.866   2.823   4.495
 1328SOL    OW  3982   1.196   2.709   4.682
 1328SOL    HW1 3983   1.172   2.721   4.774
 1328SOL    HW2 3984   1.186   2.796   4.643
 1329SOL    OW  3985   2.155   2.591   3.790
 1329SOL    HW1 3986   2.098   2.653   3.836
 1329SOL    HW2 3987   2.104   2.563   3.714
 1330SOL    OW  3988   1.326   2.435   4.430
 1330SOL    HW1 3989   1.345   2.494   4.504
 1330SOL    HW2 3990   1.231   2.438   4.422
 1331SOL    OW  3991   1.624   2.642   4.172
 1331SOL    HW1 3992   1.595   2.683   4.091
 1331SOL    HW2 3993   1.596   2.551   4.165
 1332SOL    OW  3994   2.205   2.390   4.442
 1332SOL    HW1 3995   2.189   2.466   4.498
 1332SOL    HW2 3996   2.299   2.394   4.424
 1333SOL    OW  3997   2.138   2.143   4.548
 1333SOL    HW1 3998   2.066   2.106   4.497
 1333SOL    HW2 3999   2.160   2.225   4.504
 1334SOL    OW  4000   2.382   2.737   3.693
 1334SOL    HW1 4001   2.468   2.711   3.727
 1334SOL    HW2 4002   2.321   2.674   3.732
 1335SOL    OW  4003   1.293   2.426   5.163
 1335SOL    HW1 4004   1.200   2.425   5.186
 1335SOL    HW2 4005   1.313   2.335   5.139
 1336SOL    OW  4006   1.554   3.404   4.789
 1336SOL    HW1 4007   1.556   3.499   4.786
 1336SOL    HW2 4008   1.481   3.379   4.733
 1337SOL    OW  4009   1.992   3.433   4.780
 1337SOL    HW1 4010   2.028   3.389   4.858
 1337SOL    HW2 4011   1.924   3.374   4.748
 1338SOL    OW  4012   1.399   3.337   5.795
 1338SOL    HW1 4013   1.365   3.414   5.751
 1338SOL    HW2 4014   1.456   3.372   5.864
 1339SOL    OW  4015   1.383   3.368   5.027
 1339SOL    HW1 4016   1.441   3.322   5.087
 1339SOL    HW2 4017   1.440   3.399   4.956
 1340SOL    OW  4018   1.640   3.349   5.385
 1340SOL    HW1 4019   1.591   3.429   5.401
 1340SOL    HW2 4020   1.617   3.291   5.458
 1341SOL    OW  4021   1.918   3.337   5.394
 1341SOL    HW1 4022   1.825   3.357   5.390
 1341SOL    HW2 4023   1.962   3.421   5.384
 1342SOL    OW  4024   2.131   3.371   5.005
 1342SOL    HW1 4025   2.157   3.450   5.053
 1342SOL    HW2 4026   2.090   3.315   5.071
 1343SOL    OW  4027   2.178   3.383   5.737
 1343SOL    HW1 4028   2.202   3.463   5.691
 1343SOL    HW2 4029   2.261   3.344   5.763
 1344SOL    OW  4030   1.172   3.202   5.833
 1344SOL    HW1 4031   1.166   3.203   5.928
 1344SOL    HW2 4032   1.263   3.224   5.813
 1345SOL    OW  4033   1.528   3.200   5.179
 1345SOL    HW1 4034   1.564   3.260   5.245
 1345SOL    HW2 4035   1.500   3.124   5.230
 1346SOL    OW  4036   1.555   3.185   5.589
 1346SOL    HW1 4037   1.506   3.245   5.645
 1346SOL    HW2 4038   1.632   3.162   5.640
 1347SOL    OW  4039   1.779   3.138   5.043
 1347SOL    HW1 4040   1.707   3.172   5.097
 1347SOL    HW2 4041   1.858   3.159   5.093
 1348SOL    OW  4042   2.035   3.201   5.615
 1348SOL    HW1 4043   1.989   3.257   5.553
 1348SOL    HW2 4044   2.092   3.261   5.664
 1349SOL    OW  4045   2.159   2.986   5.263
 1349SOL    HW1 4046   2.157   2.964   5.356
 1349SOL    HW2 4047   2.249   2.970   5.236
 1350SOL    OW  4048   1.173   3.223   4.907
 1350SOL    HW1 4049   1.155   3.143   4.956
 1350SOL    HW2 4050   1.248   3.262   4.952
 1351SOL    OW  4051   2.015   3.206   5.191
 1351SOL    HW1 4052   1.983   3.249   5.271
 1351SOL    HW2 4053   2.069   3.134   5.223
 1352SOL    OW  4054   1.786   3.113   5.739
 1352SOL    HW1 4055   1.790   3.162   5.821
 1352SOL    HW2 4056   1.868   3.132   5.694
 1353SOL    OW  4057   1.190   2.994   5.074
 1353SOL    HW1 4058   1.110   3.001   5.125
 1353SOL    HW2 4059   1.260   2.992   5.139
 1354SOL    OW  4060   1.143   2.959   5.695
 1354SOL    HW1 4061   1.148   3.038   5.749
 1354SOL    HW2 4062   1.222   2.963   5.640
 1355SOL    OW  4063   1.394   2.971   5.270
 1355SOL    HW1 4064   1.388   2.971   5.366
 1355SOL    HW2 4065   1.464   2.909   5.251
 1356SOL    OW  4066   1.409   2.977   5.553
 1356SOL    HW1 4067   1.472   3.048   5.560
 1356SOL    HW2 4068   1.461   2.897   5.557
 1357SOL    OW  4069   2.174   2.625   4.976
 1357SOL    HW1 4070   2.190   2.548   5.030
 1357SOL    HW2 4071   2.261   2.660   4.957
 1358SOL    OW  4072   2.159   2.945   5.549
 1358SOL    HW1 4073   2.129   3.030   5.579
 1358SOL    HW2 4074   2.244   2.932   5.592
 1359SOL    OW  4075   1.775   2.826   5.732
 1359SOL    HW1 4076   1.797   2.919   5.740
 1359SOL    HW2 4077   1.783   2.792   5.821
 1360SOL    OW  4078   1.756   2.857   5.065
 1360SOL    HW1 4079   1.759   2.953   5.067
 1360SOL    HW2 4080   1.847   2.831   5.082
 1361SOL    OW  4081   1.157   2.759   4.949
 1361SOL    HW1 4082   1.169   2.849   4.979
 1361SOL    HW2 4083   1.240   2.716   4.970
 1362SOL    OW  4084   1.556   2.743   5.574
 1362SOL    HW1 4085   1.520   2.668   5.622
 1362SOL    HW2 4086   1.629   2.773   5.629
 1363SOL    OW  4087   1.558   2.764   5.233
 1363SOL    HW1 4088   1.601   2.703   5.294
 1363SOL    HW2 4089   1.628   2.790   5.173
 1364SOL    OW  4090   2.018   2.781   5.135
 1364SOL    HW1 4091   2.078   2.728   5.082
 1364SOL    HW2 4092   2.072   2.853   5.168
 1365SOL    OW  4093   2.006   2.711   5.610
 1365SOL    HW1 4094   2.036   2.800   5.594
 1365SOL    HW2 4095   1.917   2.721   5.644
 1366SOL    OW  4096   1.428   2.598   5.763
 1366SOL    HW1 4097   1.370   2.662   5.803
 1366SOL    HW2 4098   1.468   2.552   5.837
 1367SOL    OW  4099   1.393   2.636   5.021
 1367SOL    HW1 4100   1.365   2.559   5.070
 1367SOL    HW2 4101   1.428   2.695   5.087
 1368SOL    OW  4102   1.578   2.515   4.839
 1368SOL    HW1 4103   1.522   2.553   4.907
 1368SOL    HW2 4104   1.651   2.576   4.833
 1369SOL    OW  4105   1.666   2.583   5.401
 1369SOL    HW1 4106   1.634   2.643   5.468
 1369SOL    HW2 4107   1.761   2.589   5.406
 1370SOL    OW  4108   2.228   2.406   5.147
 1370SOL    HW1 4109   2.203   2.327   5.098
 1370SOL    HW2 4110   2.191   2.394   5.234
 1371SOL    OW  4111   2.160   2.588   5.822
 1371SOL    HW1 4112   2.124   2.628   5.743
 1371SOL    HW2 4113   2.247   2.627   5.832
 1372SOL    OW  4114   1.783   2.700   4.820
 1372SOL    HW1 4115   1.798   2.765   4.751
 1372SOL    HW2 4116   1.760   2.752   4.897
 1373SOL    OW  4117   1.965   2.615   5.342
 1373SOL    HW1 4118   1.995   2.661   5.421
 1373SOL    HW2 4119   1.963   2.682   5.274
 1374SOL    OW  4120   1.173   2.731   5.855
 1374SOL    HW1 4121   1.160   2.755   5.947
 1374SOL    HW2 4122   1.163   2.813   5.807
 1375SOL    OW  4123   1.985   2.506   4.803
 1375SOL    HW1 4124   1.923   2.579   4.798
 1375SOL    HW2 4125   2.055   2.537   4.860
 1376SOL    OW  4126   1.270   2.407   5.657
 1376SOL    HW1 4127   1.324   2.477   5.691
 1376SOL    HW2 4128   1.295   2.398   5.565
 1377SOL    OW  4129   1.398   2.419   5.410
 1377SOL    HW1 4130   1.360   2.439   5.324
 1377SOL    HW2 4131   1.486   2.458   5.406
 1378SOL    OW  4132   2.080   2.374   5.368
 1378SOL    HW1 4133   2.046   2.463   5.370
 1378SOL    HW2 4134   2.135   2.366   5.446
 1379SOL    OW  4135   2.199   2.365   5.665
 1379SOL    HW1 4136   2.192   2.452   5.706
 1379SOL    HW2 4137   2.289   2.362   5.633
 1380SOL    OW  4138   2.158   2.162   4.976
 1380SOL    HW1 4139   2.107   2.186   4.899
 1380SOL    HW2 4140   2.095   2.126   5.037
 1381SOL    OW  4141   2.548   3.601   0.326
 1381SOL    HW1 4142   2.454   3.619   0.335
 1381SOL    HW2 4143   2.552   3.517   0.280
 1382SOL    OW  4144   2.762   1.026   5.988
 1382SOL    HW1 4145   2.780   1.116   6.014
 1382SOL    HW2 4146   2.847   0.982   5.996
 1383SOL    OW  4147   3.219   1.003   0.025
 1383SOL    HW1 4148   3.211   1.099   0.025
 1383SOL    HW2 4149   3.254   0.982  -0.061
 1384SOL    OW  4150   2.583   0.946   0.958
 1384SOL    HW1 4151   2.559   1.029   0.917
 1384SOL    HW2 4152   2.642   0.972   1.030
 1385SOL    OW  4153   2.607   0.984   0.207
 1385SOL    HW1 4154   2.663   0.913   0.238
 1385SOL    HW2 4155   2.630   0.994   0.115
 1386SOL    OW  4156   2.869   0.989   0.592
 1386SOL    HW1 4157   2.823   1.073   0.591
 1386SOL    HW2 4158   2.819   0.935   0.653
 1387SOL    OW  4159   3.144   0.951   0.603
 1387SOL    HW1 4160   3.054   0.977   0.583
 1387SOL    HW2 4161   3.190   1.033   0.620
 1388SOL    OW  4162   0.032   0.779   0.127
 1388SOL    HW1 4163   0.038   0.697   0.176
 1388SOL    HW2 4164  -0.050   0.819   0.157
 1389SOL    OW  4165   3.338   0.993   0.990
 1389SOL    HW1 4166   3.379   1.061   0.938
 1389SOL    HW2 4167   3.408   0.929   1.005
 1390SOL    OW  4168   2.373   0.797   1.069
 1390SOL    HW1 4169   2.382   0.802   1.165
 1390SOL    HW2 4170   2.457   0.828   1.036
 1391SOL    OW  4171   2.776   0.826   0.340
 1391SOL    HW1 4172   2.808   0.871   0.419
 1391SOL    HW2 4173   2.720   0.756   0.373
 1392SOL    OW  4174   2.759   0.803   0.798
 1392SOL    HW1 4175   2.705   0.862   0.850
 1392SOL    HW2 4176   2.835   0.785   0.853
 1393SOL    OW  4177   3.004   0.858   5.991
 1393SOL    HW1 4178   2.984   0.812   6.073
 1393SOL    HW2 4179   3.072   0.921   6.015
 1394SOL    OW  4180   3.196   0.824   0.844
 1394SOL    HW1 4181   3.175   0.873   0.765
 1394SOL    HW2 4182   3.235   0.888   0.903
 1395SOL    OW  4183   3.412   0.918   0.235
 1395SOL    HW1 4184   3.364   0.862   0.295
 1395SOL    HW2 4185   3.344   0.962   0.183
 1396SOL    OW  4186   2.402   0.820   0.120
 1396SOL    HW1 4187   2.327   0.875   0.141
 1396SOL    HW2 4188   2.477   0.865   0.159
 1397SOL    OW  4189   3.014   0.733   0.244
 1397SOL    HW1 4190   3.003   0.639   0.228
 1397SOL    HW2 4191   2.929   0.762   0.277
 1398SOL    OW  4192   2.963   0.748   0.980
 1398SOL    HW1 4193   2.980   0.786   1.066
 1398SOL    HW2 4194   3.031   0.786   0.924
 1399SOL    OW  4195   2.421   0.580   0.251
 1399SOL    HW1 4196   2.402   0.662   0.208
 1399SOL    HW2 4197   2.360   0.576   0.325
 1400SOL    OW  4198   2.342   0.585   0.884
 1400SOL    HW1 4199   2.304   0.649   0.944
 1400SOL    HW2 4200   2.401   0.636   0.828
 1401SOL    OW  4201   2.645   0.583   0.418
 1401SOL    HW1 4202   2.626   0.622   0.503
 1401SOL    HW2 4203   2.561   0.586   0.371
 1402SOL    OW  4204   2.574   0.616   0.681
 1402SOL    HW1 4205   2.630   0.670   0.736
 1402SOL    HW2 4206   2.614   0.529   0.684
 1403SOL    OW  4207   3.240   0.791   0.391
 1403SOL    HW1 4208   3.156   0.756   0.360
 1403SOL    HW2 4209   3.216   0.860   0.452
 1404SOL    OW  4210   3.333   0.610   0.775
 1404SOL    HW1 4211   3.287   0.687   0.808
 1404SOL    HW2 4212   3.420   0.614   0.815
 1405SOL    OW  4213   2.955   0.491   0.913
 1405SOL    HW1 4214   2.967   0.446   0.996
 1405SOL    HW2 4215   2.945   0.583   0.937
 1406SOL    OW  4216   3.025   0.454   0.255
 1406SOL    HW1 4217   2.949   0.418   0.302
 1406SOL    HW2 4218   3.100   0.430   0.309
 1407SOL    OW  4219   2.384   0.329   0.114
 1407SOL    HW1 4220   2.387   0.412   0.163
 1407SOL    HW2 4221   2.472   0.291   0.127
 1408SOL    OW  4222   2.750   0.375   0.756
 1408SOL    HW1 4223   2.690   0.336   0.819
 1408SOL    HW2 4224   2.813   0.423   0.809
 1409SOL    OW  4225   2.800   0.352   0.353
 1409SOL    HW1 4226   2.844   0.304   0.424
 1409SOL    HW2 4227   2.752   0.422   0.398
 1410SOL    OW  4228   3.259   0.349   0.408
 1410SOL    HW1 4229   3.304   0.429   0.434
 1410SOL    HW2 4230   3.318   0.308   0.344
 1411SOL    OW  4231   3.218   0.384   0.847
 1411SOL    HW1 4232   3.126   0.400   0.869
 1411SOL    HW2 4233   3.253   0.470   0.826
 1412SOL    OW  4234   2.582   0.240   0.945
 1412SOL    HW1 4235   2.504   0.274   0.988
 1412SOL    HW2 4236   2.641   0.217   1.017
 1413SOL    OW  4237   2.620   0.213   0.174
 1413SOL    HW1 4238   2.594   0.138   0.227
 1413SOL    HW2 4239   2.681   0.261   0.229
 1414SOL    OW  4240   2.793   0.111   0.002
 1414SOL    HW1 4241   2.747   0.143   0.080
 1414SOL    HW2 4242   2.873   0.164  -0.001
 1415SOL    OW  4243   2.902   0.225   0.580
 1415SOL    HW1 4244   2.857   0.283   0.642
 1415SOL    HW2 4245   2.995   0.240   0.597
 1416SOL    OW  4246   3.260   0.110   0.034
 1416SOL    HW1 4247   3.318   0.136   0.105
 1416SOL    HW2 4248   3.296   0.155  -0.043
 1417SOL    OW  4249   3.405   0.253   0.998
 1417SOL    HW1 4250   3.351   0.311   0.944
 1417SOL    HW2 4251   3.484   0.303   1.014
 1418SOL    OW  4252   3.010   0.287   0.025
 1418SOL    HW1 4253   3.014   0.349   0.098
 1418SOL    HW2 4254   3.087   0.230   0.039
 1419SOL    OW  4255   3.183   0.218   0.624
 1419SOL    HW1 4256   3.217   0.272   0.696
 1419SOL    HW2 4257   3.206   0.268   0.545
 1420SOL    OW  4258   2.366   0.355   1.042
 1420SOL    HW1 4259   2.377   0.385   1.132
 1420SOL    HW2 4260   2.383   0.433   0.989
 1421SOL    OW  4261   3.603   0.390   5.850
 1421SOL    HW1 4262   3.604   0.468   5.793
 1421SOL    HW2 4263   3.523   0.343   5.824
 1422SOL    OW  4264   2.538   3.592   0.804
 1422SOL    HW1 4265   2.576   3.674   0.837
 1422SOL    HW2 4266   2.573   3.582   0.716
 1423SOL    OW  4267   2.717   0.012   0.575
 1423SOL    HW1 4268   2.661   0.019   0.498
 1423SOL    HW2 4269   2.781   0.084   0.565
 1424SOL    OW  4270   3.339   3.562   0.615
 1424SOL    HW1 4271   3.271   3.629   0.611
 1424SOL    HW2 4272   3.374   3.568   0.704
 1425SOL    OW  4273   3.455   0.022   0.866
 1425SOL    HW1 4274   3.444   0.104   0.914
 1425SOL    HW2 4275   3.545   0.025   0.833
 1426SOL    OW  4276   3.454   3.581   0.373
 1426SOL    HW1 4277   3.410   3.585   0.457
 1426SOL    HW2 4278   3.409   3.510   0.326
 1427SOL    OW  4279   2.548   0.019   1.559
 1427SOL    HW1 4280   2.455   0.004   1.575
 1427SOL    HW2 4281   2.579  -0.063   1.520
 1428SOL    OW  4282   2.738   1.052   1.170
 1428SOL    HW1 4283   2.756   1.146   1.178
 1428SOL    HW2 4284   2.824   1.011   1.175
 1429SOL    OW  4285   3.224   1.098   1.244
 1429SOL    HW1 4286   3.219   1.193   1.259
 1429SOL    HW2 4287   3.275   1.089   1.164
 1430SOL    OW  4288   2.599   0.990   2.202
 1430SOL    HW1 4289   2.648   1.012   2.282
 1430SOL    HW2 4290   2.540   0.920   2.229
 1431SOL    OW  4291   2.584   0.993   1.399
 1431SOL    HW1 4292   2.638   0.943   1.460
 1431SOL    HW2 4293   2.638   1.004   1.321
 1432SOL    OW  4294   2.818   1.000   1.819
 1432SOL    HW1 4295   2.749   1.063   1.799
 1432SOL    HW2 4296   2.800   0.972   1.909
 1433SOL    OW  4297   3.091   0.935   1.782
 1433SOL    HW1 4298   2.999   0.941   1.809
 1433SOL    HW2 4299   3.131   1.016   1.816
 1434SOL    OW  4300   3.356   0.972   1.465
 1434SOL    HW1 4301   3.370   1.043   1.528
 1434SOL    HW2 4302   3.327   1.017   1.385
 1435SOL    OW  4303   3.371   0.957   2.210
 1435SOL    HW1 4304   3.315   0.910   2.148
 1435SOL    HW2 4305   3.446   0.899   2.224
 1436SOL    OW  4306   2.395   0.824   2.256
 1436SOL    HW1 4307   2.373   0.821   2.349
 1436SOL    HW2 4308   2.321   0.868   2.215
 1437SOL    OW  4309   2.767   0.837   1.600
 1437SOL    HW1 4310   2.785   0.887   1.680
 1437SOL    HW2 4311   2.702   0.772   1.626
 1438SOL    OW  4312   2.754   0.834   2.036
 1438SOL    HW1 4313   2.714   0.885   2.107
 1438SOL    HW2 4314   2.826   0.787   2.078
 1439SOL    OW  4315   3.001   0.918   1.206
 1439SOL    HW1 4316   2.991   0.857   1.279
 1439SOL    HW2 4317   3.079   0.968   1.227
 1440SOL    OW  4318   3.220   0.811   2.002
 1440SOL    HW1 4319   3.188   0.841   1.917
 1440SOL    HW2 4320   3.244   0.720   1.988
 1441SOL    OW  4321   3.184   0.798   1.570
 1441SOL    HW1 4322   3.157   0.856   1.641
 1441SOL    HW2 4323   3.247   0.849   1.520
 1442SOL    OW  4324   2.382   0.821   1.345
 1442SOL    HW1 4325   2.302   0.863   1.377
 1442SOL    HW2 4326   2.451   0.885   1.364
 1443SOL    OW  4327   2.959   0.735   1.425
 1443SOL    HW1 4328   2.889   0.774   1.478
 1443SOL    HW2 4329   3.039   0.751   1.474
 1444SOL    OW  4330   2.995   0.714   2.176
 1444SOL    HW1 4331   2.979   0.776   2.247
 1444SOL    HW2 4332   3.052   0.761   2.115
 1445SOL    OW  4333   2.364   0.624   1.532
 1445SOL    HW1 4334   2.382   0.689   1.465
 1445SOL    HW2 4335   2.443   0.622   1.586
 1446SOL    OW  4336   2.398   0.591   2.100
 1446SOL    HW1 4337   2.405   0.666   2.160
 1446SOL    HW2 4338   2.478   0.595   2.047
 1447SOL    OW  4339   2.597   0.620   1.676
 1447SOL    HW1 4340   2.612   0.618   1.770
 1447SOL    HW2 4341   2.631   0.536   1.645
 1448SOL    OW  4342   2.622   0.619   1.942
 1448SOL    HW1 4343   2.659   0.701   1.975
 1448SOL    HW2 4344   2.677   0.551   1.980
 1449SOL    OW  4345   3.376   0.235   1.391
 1449SOL    HW1 4346   3.454   0.285   1.368
 1449SOL    HW2 4347   3.321   0.238   1.312
 1450SOL    OW  4348   3.337   0.573   1.670
 1450SOL    HW1 4349   3.277   0.646   1.654
 1450SOL    HW2 4350   3.411   0.588   1.611
 1451SOL    OW  4351   3.259   0.332   2.040
 1451SOL    HW1 4352   3.304   0.410   2.007
 1451SOL    HW2 4353   3.173   0.364   2.066
 1452SOL    OW  4354   2.938   0.461   1.388
 1452SOL    HW1 4355   2.951   0.556   1.389
 1452SOL    HW2 4356   3.016   0.425   1.430
 1453SOL    OW  4357   2.374   0.391   1.342
 1453SOL    HW1 4358   2.359   0.463   1.402
 1453SOL    HW2 4359   2.449   0.344   1.379
 1454SOL    OW  4360   2.778   0.415   2.014
 1454SOL    HW1 4361   2.725   0.356   2.068
 1454SOL    HW2 4362   2.861   0.422   2.061
 1455SOL    OW  4363   2.744   0.388   1.565
 1455SOL    HW1 4364   2.787   0.347   1.640
 1455SOL    HW2 4365   2.815   0.409   1.504
 1456SOL    OW  4366   3.169   0.369   1.563
 1456SOL    HW1 4367   3.222   0.436   1.604
 1456SOL    HW2 4368   3.229   0.321   1.507
 1457SOL    OW  4369   3.352   0.569   1.939
 1457SOL    HW1 4370   3.441   0.584   1.970
 1457SOL    HW2 4371   3.359   0.571   1.843
 1458SOL    OW  4372   2.626   0.236   2.166
 1458SOL    HW1 4373   2.552   0.287   2.200
 1458SOL    HW2 4374   2.670   0.204   2.245
 1459SOL    OW  4375   2.590   0.238   1.420
 1459SOL    HW1 4376   2.559   0.168   1.477
 1459SOL    HW2 4377   2.644   0.294   1.476
 1460SOL    OW  4378   2.721   0.186   1.181
 1460SOL    HW1 4379   2.681   0.223   1.260
 1460SOL    HW2 4380   2.767   0.108   1.211
 1461SOL    OW  4381   2.847   0.243   1.813
 1461SOL    HW1 4382   2.825   0.313   1.875
 1461SOL    HW2 4383   2.942   0.236   1.817
 1462SOL    OW  4384   2.966   0.328   1.145
 1462SOL    HW1 4385   2.956   0.390   1.218
 1462SOL    HW2 4386   2.895   0.265   1.157
 1463SOL    OW  4387   3.391   0.141   2.189
 1463SOL    HW1 4388   3.345   0.207   2.138
 1463SOL    HW2 4389   3.465   0.188   2.227
 1464SOL    OW  4390   3.191   0.180   1.171
 1464SOL    HW1 4391   3.119   0.237   1.143
 1464SOL    HW2 4392   3.259   0.194   1.105
 1465SOL    OW  4393   3.151   0.230   1.805
 1465SOL    HW1 4394   3.214   0.253   1.873
 1465SOL    HW2 4395   3.162   0.297   1.738
 1466SOL    OW  4396   2.396   0.374   2.257
 1466SOL    HW1 4397   2.366   0.390   2.347
 1466SOL    HW2 4398   2.383   0.456   2.211
 1467SOL    OW  4399   3.230   3.504   1.176
 1467SOL    HW1 4400   3.263   3.482   1.089
 1467SOL    HW2 4401   3.212   3.598   1.172
 1468SOL    OW  4402   2.567  -0.002   2.010
 1468SOL    HW1 4403   2.588   0.070   2.069
 1468SOL    HW2 4404   2.630   0.007   1.938
 1469SOL    OW  4405   2.725   3.583   1.799
 1469SOL    HW1 4406   2.676   3.609   1.721
 1469SOL    HW2 4407   2.784   3.657   1.816
 1470SOL    OW  4408   3.294   3.583   1.801
 1470SOL    HW1 4409   3.240   3.659   1.823
 1470SOL    HW2 4410   3.355   3.575   1.874
 1471SOL    OW  4411   3.459   3.547   2.023
 1471SOL    HW1 4412   3.437   3.619   2.083
 1471SOL    HW2 4413   3.554   3.553   2.013
 1472SOL    OW  4414   3.452   0.017   1.564
 1472SOL    HW1 4415   3.405   0.008   1.647
 1472SOL    HW2 4416   3.418   0.099   1.527
 1473SOL    OW  4417   2.539   3.581   2.749
 1473SOL    HW1 4418   2.450   3.556   2.776
 1473SOL    HW2 4419   2.570   3.507   2.697
 1474SOL    OW  4420   2.744   1.049   2.433
 1474SOL    HW1 4421   2.747   1.143   2.416
 1474SOL    HW2 4422   2.825   1.015   2.396
 1475SOL    OW  4423   3.199   1.044   2.410
 1475SOL    HW1 4424   3.188   1.139   2.401
 1475SOL    HW2 4425   3.265   1.021   2.344
 1476SOL    OW  4426   2.599   0.975   3.391
 1476SOL    HW1 4427   2.587   1.055   3.341
 1476SOL    HW2 4428   2.672   0.994   3.451
 1477SOL    OW  4429   2.578   0.953   2.636
 1477SOL    HW1 4430   2.631   0.905   2.699
 1477SOL    HW2 4431   2.643   0.993   2.577
 1478SOL    OW  4432   2.842   0.968   2.997
 1478SOL    HW1 4433   2.787   1.036   2.959
 1478SOL    HW2 4434   2.784   0.918   3.054
 1479SOL    OW  4435   3.208   0.785   2.774
 1479SOL    HW1 4436   3.255   0.707   2.803
 1479SOL    HW2 4437   3.196   0.837   2.854
 1480SOL    OW  4438   3.366   0.949   2.614
 1480SOL    HW1 4439   3.322   0.882   2.667
 1480SOL    HW2 4440   3.300   0.978   2.552
 1481SOL    OW  4441   3.391   0.970   3.337
 1481SOL    HW1 4442   3.426   1.046   3.290
 1481SOL    HW2 4443   3.468   0.927   3.374
 1482SOL    OW  4444   2.392   0.833   3.479
 1482SOL    HW1 4445   2.385   0.835   3.575
 1482SOL    HW2 4446   2.468   0.889   3.460
 1483SOL    OW  4447   2.765   0.797   2.768
 1483SOL    HW1 4448   2.794   0.832   2.852
 1483SOL    HW2 4449   2.716   0.718   2.791
 1484SOL    OW  4450   2.705   0.807   3.201
 1484SOL    HW1 4451   2.785   0.776   3.243
 1484SOL    HW2 4452   2.675   0.878   3.257
 1485SOL    OW  4453   2.977   0.899   2.373
 1485SOL    HW1 4454   2.993   0.829   2.436
 1485SOL    HW2 4455   3.044   0.965   2.392
 1486SOL    OW  4456   3.221   0.779   3.226
 1486SOL    HW1 4457   3.180   0.806   3.144
 1486SOL    HW2 4458   3.278   0.852   3.249
 1487SOL    OW  4459   3.390   0.592   2.831
 1487SOL    HW1 4460   3.414   0.594   2.924
 1487SOL    HW2 4461   3.474   0.589   2.785
 1488SOL    OW  4462   2.375   0.810   2.524
 1488SOL    HW1 4463   2.305   0.859   2.569
 1488SOL    HW2 4464   2.455   0.857   2.547
 1489SOL    OW  4465   2.987   0.727   2.609
 1489SOL    HW1 4466   2.911   0.748   2.662
 1489SOL    HW2 4467   3.062   0.744   2.666
 1490SOL    OW  4468   2.960   0.738   3.323
 1490SOL    HW1 4469   2.950   0.787   3.404
 1490SOL    HW2 4470   3.052   0.751   3.299
 1491SOL    OW  4471   2.612   0.583   2.867
 1491SOL    HW1 4472   2.531   0.578   2.817
 1491SOL    HW2 4473   2.585   0.612   2.954
 1492SOL    OW  4474   2.351   0.585   3.335
 1492SOL    HW1 4475   2.411   0.598   3.262
 1492SOL    HW2 4476   2.364   0.661   3.392
 1493SOL    OW  4477   2.589   0.214   2.566
 1493SOL    HW1 4478   2.645   0.266   2.624
 1493SOL    HW2 4479   2.567   0.136   2.617
 1494SOL    OW  4480   2.541   0.593   3.147
 1494SOL    HW1 4481   2.608   0.659   3.164
 1494SOL    HW2 4482   2.587   0.509   3.160
 1495SOL    OW  4483   3.217   0.402   2.748
 1495SOL    HW1 4484   3.189   0.357   2.827
 1495SOL    HW2 4485   3.280   0.467   2.780
 1496SOL    OW  4486   3.388   0.567   3.143
 1496SOL    HW1 4487   3.331   0.641   3.162
 1496SOL    HW2 4488   3.459   0.573   3.206
 1497SOL    OW  4489   2.980   0.460   3.326
 1497SOL    HW1 4490   2.970   0.555   3.329
 1497SOL    HW2 4491   2.976   0.433   3.417
 1498SOL    OW  4492   3.030   0.425   2.148
 1498SOL    HW1 4493   3.038   0.520   2.159
 1498SOL    HW2 4494   3.019   0.391   2.236
 1499SOL    OW  4495   2.360   0.589   2.739
 1499SOL    HW1 4496   2.274   0.590   2.782
 1499SOL    HW2 4497   2.355   0.659   2.673
 1500SOL    OW  4498   2.726   0.383   3.167
 1500SOL    HW1 4499   2.676   0.314   3.211
 1500SOL    HW2 4500   2.777   0.425   3.236
 1501SOL    OW  4501   2.727   0.363   2.729
 1501SOL    HW1 4502   2.819   0.380   2.708
 1501SOL    HW2 4503   2.695   0.447   2.763
 1502SOL    OW  4504   2.974   0.455   2.643
 1502SOL    HW1 4505   2.968   0.547   2.617
 1502SOL    HW2 4506   3.060   0.447   2.683
 1503SOL    OW  4507   3.213   0.352   3.238
 1503SOL    HW1 4508   3.130   0.391   3.266
 1503SOL    HW2 4509   3.264   0.426   3.207
 1504SOL    OW  4510   2.613   0.206   3.350
 1504SOL    HW1 4511   2.545   0.259   3.392
 1504SOL    HW2 4512   2.666   0.174   3.423
 1505SOL    OW  4513   2.053   3.575   2.968
 1505SOL    HW1 4514   2.105   3.587   3.048
 1505SOL    HW2 4515   1.995   3.652   2.965
 1506SOL    OW  4516   2.784   0.131   2.373
 1506SOL    HW1 4517   2.846   0.204   2.380
 1506SOL    HW2 4518   2.720   0.147   2.442
 1507SOL    OW  4519   2.846   0.242   2.950
 1507SOL    HW1 4520   2.819   0.282   3.033
 1507SOL    HW2 4521   2.797   0.289   2.883
 1508SOL    OW  4522   3.377   0.214   2.623
 1508SOL    HW1 4523   3.317   0.271   2.670
 1508SOL    HW2 4524   3.435   0.273   2.575
 1509SOL    OW  4525   3.335   0.195   3.406
 1509SOL    HW1 4526   3.286   0.247   3.343
 1509SOL    HW2 4527   3.421   0.236   3.410
 1510SOL    OW  4528   2.972   0.319   2.401
 1510SOL    HW1 4529   3.044   0.255   2.401
 1510SOL    HW2 4530   2.976   0.359   2.488
 1511SOL    OW  4531   3.147   0.250   2.985
 1511SOL    HW1 4532   3.156   0.274   3.077
 1511SOL    HW2 4533   3.054   0.262   2.966
 1512SOL    OW  4534   2.428   0.348   3.468
 1512SOL    HW1 4535   2.448   0.359   3.561
 1512SOL    HW2 4536   2.406   0.436   3.438
 1513SOL    OW  4537   3.211   0.144   2.396
 1513SOL    HW1 4538   3.267   0.147   2.474
 1513SOL    HW2 4539   3.272   0.156   2.323
 1514SOL    OW  4540   2.526   3.574   3.240
 1514SOL    HW1 4541   2.551   3.651   3.291
 1514SOL    HW2 4542   2.561   3.591   3.152
 1515SOL    OW  4543   2.698  -0.003   3.000
 1515SOL    HW1 4544   2.644  -0.003   2.921
 1515SOL    HW2 4545   2.759   0.070   2.988
 1516SOL    OW  4546   3.238   3.591   2.998
 1516SOL    HW1 4547   3.204   3.681   3.000
 1516SOL    HW2 4548   3.308   3.589   3.063
 1517SOL    OW  4549   3.428   0.004   3.231
 1517SOL    HW1 4550   3.401   0.078   3.285
 1517SOL    HW2 4551   3.524   0.009   3.229
 1518SOL    OW  4552   3.439   0.001   2.794
 1518SOL    HW1 4553   3.373   0.003   2.863
 1518SOL    HW2 4554   3.431   0.087   2.752
 1519SOL    OW  4555   2.244   3.587   3.985
 1519SOL    HW1 4556   2.201   3.568   4.069
 1519SOL    HW2 4557   2.336   3.602   4.008
 1520SOL    OW  4558   2.792   1.344   3.601
 1520SOL    HW1 4559   2.773   1.251   3.599
 1520SOL    HW2 4560   2.739   1.378   3.673
 1521SOL    OW  4561   3.196   1.015   3.521
 1521SOL    HW1 4562   3.192   1.108   3.499
 1521SOL    HW2 4563   3.264   0.980   3.463
 1522SOL    OW  4564   2.578   0.958   4.533
 1522SOL    HW1 4565   2.538   1.035   4.491
 1522SOL    HW2 4566   2.631   0.993   4.604
 1523SOL    OW  4567   2.756   1.069   3.597
 1523SOL    HW1 4568   2.693   1.047   3.666
 1523SOL    HW2 4569   2.831   1.011   3.614
 1524SOL    OW  4570   2.864   0.953   4.171
 1524SOL    HW1 4571   2.821   1.031   4.205
 1524SOL    HW2 4572   2.845   0.885   4.236
 1525SOL    OW  4573   3.129   0.958   4.202
 1525SOL    HW1 4574   3.036   0.975   4.185
 1525SOL    HW2 4575   3.172   1.041   4.185
 1526SOL    OW  4576   3.327   0.935   3.774
 1526SOL    HW1 4577   3.354   1.018   3.812
 1526SOL    HW2 4578   3.269   0.960   3.701
 1527SOL    OW  4579   3.430   1.187   4.426
 1527SOL    HW1 4580   3.395   1.261   4.476
 1527SOL    HW2 4581   3.524   1.188   4.443
 1528SOL    OW  4582   2.373   0.824   4.640
 1528SOL    HW1 4583   2.388   0.860   4.728
 1528SOL    HW2 4584   2.443   0.862   4.587
 1529SOL    OW  4585   2.777   0.784   3.968
 1529SOL    HW1 4586   2.780   0.835   4.049
 1529SOL    HW2 4587   2.734   0.702   3.992
 1530SOL    OW  4588   2.770   0.800   4.382
 1530SOL    HW1 4589   2.713   0.869   4.416
 1530SOL    HW2 4590   2.836   0.787   4.450
 1531SOL    OW  4591   2.968   0.875   3.574
 1531SOL    HW1 4592   2.998   0.834   3.655
 1531SOL    HW2 4593   3.045   0.922   3.541
 1532SOL    OW  4594   3.347   0.967   4.572
 1532SOL    HW1 4595   3.352   1.039   4.509
 1532SOL    HW2 4596   3.300   1.004   4.647
 1533SOL    OW  4597   3.208   0.799   3.970
 1533SOL    HW1 4598   3.244   0.859   3.904
 1533SOL    HW2 4599   3.181   0.855   4.042
 1534SOL    OW  4600   2.622   0.962   3.825
 1534SOL    HW1 4601   2.550   0.908   3.793
 1534SOL    HW2 4602   2.683   0.900   3.865
 1535SOL    OW  4603   2.991   0.722   3.815
 1535SOL    HW1 4604   2.918   0.757   3.866
 1535SOL    HW2 4605   3.068   0.737   3.870
 1536SOL    OW  4606   2.986   0.732   4.557
 1536SOL    HW1 4607   2.994   0.640   4.580
 1536SOL    HW2 4608   3.067   0.753   4.510
 1537SOL    OW  4609   2.379   0.819   3.762
 1537SOL    HW1 4610   2.316   0.872   3.811
 1537SOL    HW2 4611   2.374   0.732   3.802
 1538SOL    OW  4612   2.398   0.588   4.492
 1538SOL    HW1 4613   2.392   0.673   4.535
 1538SOL    HW2 4614   2.476   0.596   4.436
 1539SOL    OW  4615   2.627   0.578   4.036
 1539SOL    HW1 4616   2.615   0.572   4.131
 1539SOL    HW2 4617   2.667   0.495   4.011
 1540SOL    OW  4618   2.640   0.553   4.338
 1540SOL    HW1 4619   2.685   0.636   4.353
 1540SOL    HW2 4620   2.703   0.486   4.364
 1541SOL    OW  4621   3.379   0.603   4.085
 1541SOL    HW1 4622   3.382   0.611   4.181
 1541SOL    HW2 4623   3.304   0.658   4.059
 1542SOL    OW  4624   3.201   0.793   4.410
 1542SOL    HW1 4625   3.180   0.855   4.340
 1542SOL    HW2 4626   3.265   0.839   4.465
 1543SOL    OW  4627   3.006   0.444   4.642
 1543SOL    HW1 4628   3.095   0.430   4.609
 1543SOL    HW2 4629   3.011   0.419   4.735
 1544SOL    OW  4630   2.978   0.450   3.856
 1544SOL    HW1 4631   2.989   0.543   3.839
 1544SOL    HW2 4632   3.055   0.427   3.909
 1545SOL    OW  4633   2.387   0.579   3.909
 1545SOL    HW1 4634   2.471   0.584   3.954
 1545SOL    HW2 4635   2.404   0.522   3.833
 1546SOL    OW  4636   2.536   3.596   4.433
 1546SOL    HW1 4637   2.550   3.510   4.471
 1546SOL    HW2 4638   2.578   3.657   4.494
 1547SOL    OW  4639   2.767   0.348   3.984
 1547SOL    HW1 4640   2.786   0.299   4.063
 1547SOL    HW2 4641   2.852   0.378   3.952
 1548SOL    OW  4642   3.205   0.388   4.003
 1548SOL    HW1 4643   3.170   0.349   4.083
 1548SOL    HW2 4644   3.284   0.434   4.031
 1549SOL    OW  4645   3.366   0.582   4.357
 1549SOL    HW1 4646   3.307   0.650   4.389
 1549SOL    HW2 4647   3.443   0.588   4.414
 1550SOL    OW  4648   2.692   3.592   4.215
 1550SOL    HW1 4649   2.648   3.592   4.300
 1550SOL    HW2 4650   2.751   3.668   4.220
 1551SOL    OW  4651   2.649   0.161   3.811
 1551SOL    HW1 4652   2.606   0.102   3.872
 1551SOL    HW2 4653   2.686   0.230   3.866
 1552SOL    OW  4654   2.749   0.092   3.558
 1552SOL    HW1 4655   2.720   0.087   3.649
 1552SOL    HW2 4656   2.820   0.156   3.559
 1553SOL    OW  4657   3.120   0.243   4.220
 1553SOL    HW1 4658   3.140   0.278   4.307
 1553SOL    HW2 4659   3.178   0.167   4.211
 1554SOL    OW  4660   3.358   0.197   3.829
 1554SOL    HW1 4661   3.309   0.258   3.883
 1554SOL    HW2 4662   3.419   0.253   3.780
 1555SOL    OW  4663   3.366   0.269   4.638
 1555SOL    HW1 4664   3.340   0.260   4.729
 1555SOL    HW2 4665   3.457   0.299   4.642
 1556SOL    OW  4666   2.945   0.324   3.557
 1556SOL    HW1 4667   2.947   0.377   3.637
 1556SOL    HW2 4668   3.008   0.254   3.574
 1557SOL    OW  4669   3.194   0.366   4.446
 1557SOL    HW1 4670   3.247   0.321   4.512
 1557SOL    HW2 4671   3.246   0.442   4.420
 1558SOL    OW  4672   2.435   0.351   4.642
 1558SOL    HW1 4673   2.354   0.311   4.610
 1558SOL    HW2 4674   2.442   0.433   4.592
 1559SOL    OW  4675   3.159   0.145   3.622
 1559SOL    HW1 4676   3.209   0.170   3.700
 1559SOL    HW2 4677   3.218   0.164   3.549
 1560SOL    OW  4678   2.861   0.218   4.200
 1560SOL    HW1 4679   2.956   0.216   4.197
 1560SOL    HW2 4680   2.840   0.266   4.281
 1561SOL    OW  4681   2.522   3.586   3.990
 1561SOL    HW1 4682   2.542   3.508   3.939
 1561SOL    HW2 4683   2.588   3.587   4.059
 1562SOL    OW  4684   3.441   3.588   3.965
 1562SOL    HW1 4685   3.409   3.663   3.914
 1562SOL    HW2 4686   3.398   3.597   4.050
 1563SOL    OW  4687   3.383   0.029   4.452
 1563SOL    HW1 4688   3.375   0.102   4.513
 1563SOL    HW2 4689   3.478   0.016   4.443
 1564SOL    OW  4690   3.348   3.343   3.849
 1564SOL    HW1 4691   3.375   3.421   3.897
 1564SOL    HW2 4692   3.297   3.376   3.775
 1565SOL    OW  4693   2.501   3.585   5.162
 1565SOL    HW1 4694   2.526   3.668   5.120
 1565SOL    HW2 4695   2.406   3.587   5.164
 1566SOL    OW  4696   2.719   1.058   4.750
 1566SOL    HW1 4697   2.713   1.153   4.743
 1566SOL    HW2 4698   2.811   1.039   4.737
 1567SOL    OW  4699   3.201   1.082   4.790
 1567SOL    HW1 4700   3.237   1.050   4.873
 1567SOL    HW2 4701   3.114   1.043   4.785
 1568SOL    OW  4702   2.612   0.986   5.758
 1568SOL    HW1 4703   2.585   1.072   5.725
 1568SOL    HW2 4704   2.666   1.005   5.834
 1569SOL    OW  4705   2.977   0.956   4.745
 1569SOL    HW1 4706   2.987   0.884   4.683
 1569SOL    HW2 4707   2.981   0.914   4.831
 1570SOL    OW  4708   2.844   0.952   5.397
 1570SOL    HW1 4709   2.799   1.036   5.397
 1570SOL    HW2 4710   2.793   0.897   5.456
 1571SOL    OW  4711   3.127   0.959   5.397
 1571SOL    HW1 4712   3.039   0.995   5.392
 1571SOL    HW2 4713   3.185   1.036   5.397
 1572SOL    OW  4714   3.357   0.951   5.012
 1572SOL    HW1 4715   3.394   1.022   5.064
 1572SOL    HW2 4716   3.430   0.890   5.000
 1573SOL    OW  4717   3.363   0.950   5.788
 1573SOL    HW1 4718   3.409   1.009   5.728
 1573SOL    HW2 4719   3.433   0.902   5.832
 1574SOL    OW  4720   2.408   0.820   5.857
 1574SOL    HW1 4721   2.404   0.819   5.952
 1574SOL    HW2 4722   2.490   0.863   5.835
 1575SOL    OW  4723   2.753   0.813   5.168
 1575SOL    HW1 4724   2.775   0.848   5.255
 1575SOL    HW2 4725   2.689   0.876   5.133
 1576SOL    OW  4726   2.733   0.787   5.587
 1576SOL    HW1 4727   2.665   0.832   5.638
 1576SOL    HW2 4728   2.804   0.773   5.650
 1577SOL    OW  4729   3.190   1.352   4.795
 1577SOL    HW1 4730   3.204   1.259   4.782
 1577SOL    HW2 4731   3.240   1.374   4.873
 1578SOL    OW  4732   3.178   0.802   5.595
 1578SOL    HW1 4733   3.175   0.862   5.521
 1578SOL    HW2 4734   3.248   0.835   5.651
 1579SOL    OW  4735   3.194   0.815   5.163
 1579SOL    HW1 4736   3.171   0.863   5.243
 1579SOL    HW2 4737   3.244   0.878   5.111
 1580SOL    OW  4738   2.586   0.995   5.019
 1580SOL    HW1 4739   2.513   0.944   4.986
 1580SOL    HW2 4740   2.633   1.025   4.941
 1581SOL    OW  4741   2.980   0.796   4.964
 1581SOL    HW1 4742   2.907   0.779   5.023
 1581SOL    HW2 4743   3.058   0.770   5.013
 1582SOL    OW  4744   2.959   0.714   5.759
 1582SOL    HW1 4745   2.975   0.761   5.841
 1582SOL    HW2 4746   3.031   0.739   5.702
 1583SOL    OW  4747   2.379   0.838   4.926
 1583SOL    HW1 4748   2.374   0.749   4.961
 1583SOL    HW2 4749   2.290   0.873   4.936
 1584SOL    OW  4750   2.371   0.561   5.706
 1584SOL    HW1 4751   2.380   0.653   5.732
 1584SOL    HW2 4752   2.446   0.544   5.650
 1585SOL    OW  4753   2.377   0.576   5.051
 1585SOL    HW1 4754   2.455   0.559   5.104
 1585SOL    HW2 4755   2.304   0.561   5.111
 1586SOL    OW  4756   2.602   0.566   5.543
 1586SOL    HW1 4757   2.670   0.503   5.566
 1586SOL    HW2 4758   2.649   0.648   5.528
 1587SOL    OW  4759   3.309   0.566   5.176
 1587SOL    HW1 4760   3.268   0.652   5.187
 1587SOL    HW2 4761   3.345   0.546   5.262
 1588SOL    OW  4762   3.371   0.580   5.513
 1588SOL    HW1 4763   3.313   0.650   5.541
 1588SOL    HW2 4764   3.455   0.601   5.554
 1589SOL    OW  4765   3.015   0.435   5.739
 1589SOL    HW1 4766   2.982   0.520   5.767
 1589SOL    HW2 4767   3.012   0.381   5.818
 1590SOL    OW  4768   2.980   0.349   4.893
 1590SOL    HW1 4769   3.061   0.338   4.943
 1590SOL    HW2 4770   2.912   0.360   4.960
 1591SOL    OW  4771   2.137   0.215   4.994
 1591SOL    HW1 4772   2.089   0.183   4.918
 1591SOL    HW2 4773   2.222   0.241   4.959
 1592SOL    OW  4774   2.797   0.334   5.586
 1592SOL    HW1 4775   2.737   0.305   5.655
 1592SOL    HW2 4776   2.872   0.370   5.633
 1593SOL    OW  4777   2.617   0.568   5.217
 1593SOL    HW1 4778   2.657   0.653   5.201
 1593SOL    HW2 4779   2.579   0.576   5.304
 1594SOL    OW  4780   2.574   0.183   4.995
 1594SOL    HW1 4781   2.497   0.233   4.969
 1594SOL    HW2 4782   2.632   0.247   5.036
 1595SOL    OW  4783   3.218   0.378   5.568
 1595SOL    HW1 4784   3.159   0.414   5.634
 1595SOL    HW2 4785   3.277   0.450   5.547
 1596SOL    OW  4786   2.618   0.233   5.797
 1596SOL    HW1 4787   2.535   0.254   5.841
 1596SOL    HW2 4788   2.677   0.210   5.868
 1597SOL    OW  4789   2.793   0.138   4.818
 1597SOL    HW1 4790   2.838   0.221   4.832
 1597SOL    HW2 4791   2.731   0.132   4.891
 1598SOL    OW  4792   2.674   0.179   4.590
 1598SOL    HW1 4793   2.721   0.175   4.674
 1598SOL    HW2 4794   2.596   0.231   4.609
 1599SOL    OW  4795   2.808   0.223   5.336
 1599SOL    HW1 4796   2.811   0.276   5.416
 1599SOL    HW2 4797   2.892   0.177   5.335
 1600SOL    OW  4798   3.410   3.590   5.165
 1600SOL    HW1 4799   3.368   3.646   5.100
 1600SOL    HW2 4800   3.355   3.599   5.243
 1601SOL    OW  4801   0.063   0.372   0.117
 1601SOL    HW1 4802   0.030   0.393   0.030
 1601SOL    HW2 4803   0.034   0.445   0.172
 1602SOL    OW  4804   2.821   0.365   4.410
 1602SOL    HW1 4805   2.901   0.378   4.461
 1602SOL    HW2 4806   2.767   0.308   4.464
 1603SOL    OW  4807   3.150   0.355   5.123
 1603SOL    HW1 4808   3.213   0.426   5.137
 1603SOL    HW2 4809   3.110   0.341   5.208
 1604SOL    OW  4810   2.376   0.322   5.862
 1604SOL    HW1 4811   2.365   0.336   5.956
 1604SOL    HW2 4812   2.382   0.411   5.826
 1605SOL    OW  4813   3.318   0.177   4.980
 1605SOL    HW1 4814   3.410   0.203   4.976
 1605SOL    HW2 4815   3.275   0.248   5.027
 1606SOL    OW  4816   2.514   0.043   5.642
 1606SOL    HW1 4817   2.554   0.115   5.692
 1606SOL    HW2 4818   2.557   0.046   5.557
 1607SOL    OW  4819   2.658   0.009   5.394
 1607SOL    HW1 4820   2.598  -0.004   5.320
 1607SOL    HW2 4821   2.704   0.090   5.373
 1608SOL    OW  4822   3.114   0.211   5.381
 1608SOL    HW1 4823   3.172   0.135   5.389
 1608SOL    HW2 4824   3.146   0.273   5.447
 1609SOL    OW  4825   3.369   0.240   5.767
 1609SOL    HW1 4826   3.316   0.291   5.705
 1609SOL    HW2 4827   3.386   0.158   5.722
 1610SOL    OW  4828   3.278   3.578   5.419
 1610SOL    HW1 4829   3.352   3.580   5.480
 1610SOL    HW2 4830   3.249   3.486   5.420
 1611SOL    OW  4831   2.541   1.209   0.353
 1611SOL    HW1 4832   2.446   1.221   0.358
 1611SOL    HW2 4833   2.552   1.128   0.303
 1612SOL    OW  4834   2.736   2.239   5.970
 1612SOL    HW1 4835   2.770   2.327   5.985
 1612SOL    HW2 4836   2.812   2.182   5.980
 1613SOL    OW  4837   3.209   2.223   0.017
 1613SOL    HW1 4838   3.205   2.318   0.011
 1613SOL    HW2 4839   3.239   2.195  -0.069
 1614SOL    OW  4840   2.581   2.169   0.986
 1614SOL    HW1 4841   2.568   2.243   0.928
 1614SOL    HW2 4842   2.639   2.202   1.055
 1615SOL    OW  4843   2.599   2.159   0.200
 1615SOL    HW1 4844   2.668   2.124   0.256
 1615SOL    HW2 4845   2.642   2.175   0.116
 1616SOL    OW  4846   2.861   2.210   0.596
 1616SOL    HW1 4847   2.804   2.287   0.592
 1616SOL    HW2 4848   2.821   2.154   0.662
 1617SOL    OW  4849   3.237   2.379   0.604
 1617SOL    HW1 4850   3.188   2.461   0.614
 1617SOL    HW2 4851   3.282   2.368   0.687
 1618SOL    OW  4852   2.963   2.074   5.986
 1618SOL    HW1 4853   2.953   2.030   6.070
 1618SOL    HW2 4854   3.044   2.125   5.996
 1619SOL    OW  4855   3.427   2.319   0.824
 1619SOL    HW1 4856   3.522   2.314   0.811
 1619SOL    HW2 4857   3.414   2.404   0.868
 1620SOL    OW  4858   2.343   2.030   1.053
 1620SOL    HW1 4859   2.352   2.023   1.148
 1620SOL    HW2 4860   2.419   2.082   1.026
 1621SOL    OW  4861   2.789   2.037   0.375
 1621SOL    HW1 4862   2.823   2.080   0.453
 1621SOL    HW2 4863   2.725   1.974   0.408
 1622SOL    OW  4864   2.783   2.034   0.793
 1622SOL    HW1 4865   2.714   2.073   0.848
 1622SOL    HW2 4866   2.844   1.995   0.855
 1623SOL    OW  4867   2.992   1.909   0.216
 1623SOL    HW1 4868   3.074   1.922   0.265
 1623SOL    HW2 4869   2.924   1.940   0.276
 1624SOL    OW  4870   3.178   1.946   0.835
 1624SOL    HW1 4871   3.152   1.997   0.758
 1624SOL    HW2 4872   3.229   2.008   0.887
 1625SOL    OW  4873   3.340   1.778   0.455
 1625SOL    HW1 4874   3.422   1.785   0.408
 1625SOL    HW2 4875   3.285   1.847   0.419
 1626SOL    OW  4876   2.369   1.993   0.145
 1626SOL    HW1 4877   2.298   2.048   0.178
 1626SOL    HW2 4878   2.448   2.045   0.160
 1627SOL    OW  4879   3.391   1.783   0.745
 1627SOL    HW1 4880   3.385   1.781   0.649
 1627SOL    HW2 4881   3.343   1.862   0.770
 1628SOL    OW  4882   2.951   1.912   0.984
 1628SOL    HW1 4883   2.960   1.973   1.057
 1628SOL    HW2 4884   3.025   1.933   0.926
 1629SOL    OW  4885   2.394   1.781   0.301
 1629SOL    HW1 4886   2.385   1.859   0.247
 1629SOL    HW2 4887   2.462   1.803   0.365
 1630SOL    OW  4888   2.368   1.797   0.915
 1630SOL    HW1 4889   2.364   1.885   0.953
 1630SOL    HW2 4890   2.442   1.800   0.854
 1631SOL    OW  4891   2.621   1.828   0.462
 1631SOL    HW1 4892   2.612   1.826   0.557
 1631SOL    HW2 4893   2.678   1.754   0.442
 1632SOL    OW  4894   2.592   1.803   0.732
 1632SOL    HW1 4895   2.641   1.881   0.757
 1632SOL    HW2 4896   2.646   1.730   0.762
 1633SOL    OW  4897   3.199   1.997   0.378
 1633SOL    HW1 4898   3.168   2.057   0.446
 1633SOL    HW2 4899   3.272   2.042   0.337
 1634SOL    OW  4900   0.022   1.788   0.885
 1634SOL    HW1 4901  -0.060   1.793   0.834
 1634SOL    HW2 4902   0.018   1.863   0.944
 1635SOL    OW  4903   2.974   1.625   0.953
 1635SOL    HW1 4904   2.977   1.720   0.955
 1635SOL    HW2 4905   2.957   1.600   1.044
 1636SOL    OW  4906   2.969   1.637   0.205
 1636SOL    HW1 4907   2.970   1.730   0.181
 1636SOL    HW2 4908   3.041   1.628   0.268
 1637SOL    OW  4909   2.417   1.574   0.134
 1637SOL    HW1 4910   2.415   1.640   0.203
 1637SOL    HW2 4911   2.494   1.520   0.154
 1638SOL    OW  4912   2.745   1.598   0.829
 1638SOL    HW1 4913   2.688   1.541   0.880
 1638SOL    HW2 4914   2.824   1.608   0.882
 1639SOL    OW  4915   2.769   1.613   0.399
 1639SOL    HW1 4916   2.799   1.547   0.461
 1639SOL    HW2 4917   2.844   1.628   0.341
 1640SOL    OW  4918   3.355   1.418   0.243
 1640SOL    HW1 4919   3.385   1.341   0.292
 1640SOL    HW2 4920   3.435   1.462   0.215
 1641SOL    OW  4921   3.127   1.395   0.600
 1641SOL    HW1 4922   3.167   1.455   0.663
 1641SOL    HW2 4923   3.161   1.424   0.515
 1642SOL    OW  4924   2.604   1.422   0.999
 1642SOL    HW1 4925   2.528   1.454   1.049
 1642SOL    HW2 4926   2.660   1.381   1.065
 1643SOL    OW  4927   2.658   1.427   0.204
 1643SOL    HW1 4928   2.595   1.377   0.256
 1643SOL    HW2 4929   2.702   1.483   0.268
 1644SOL    OW  4930   2.643   1.422   5.763
 1644SOL    HW1 4931   2.573   1.476   5.800
 1644SOL    HW2 4932   2.696   1.397   5.839
 1645SOL    OW  4933   2.850   1.431   0.621
 1645SOL    HW1 4934   2.821   1.474   0.701
 1645SOL    HW2 4935   2.945   1.429   0.628
 1646SOL    OW  4936   3.003   2.110   1.224
 1646SOL    HW1 4937   3.092   2.141   1.237
 1646SOL    HW2 4938   2.990   2.044   1.292
 1647SOL    OW  4939   3.586   1.566   1.040
 1647SOL    HW1 4940   3.602   1.644   0.987
 1647SOL    HW2 4941   3.642   1.499   1.001
 1648SOL    OW  4942   2.795   1.305   5.987
 1648SOL    HW1 4943   2.760   1.348   6.065
 1648SOL    HW2 4944   2.875   1.355   5.966
 1649SOL    OW  4945   3.169   1.571   0.366
 1649SOL    HW1 4946   3.239   1.521   0.324
 1649SOL    HW2 4947   3.215   1.644   0.408
 1650SOL    OW  4948   2.375   1.570   1.065
 1650SOL    HW1 4949   2.373   1.603   1.155
 1650SOL    HW2 4950   2.386   1.648   1.011
 1651SOL    OW  4951   3.197   1.288   0.016
 1651SOL    HW1 4952   3.244   1.317   0.094
 1651SOL    HW2 4953   3.252   1.314  -0.057
 1652SOL    OW  4954   2.530   1.172   0.816
 1652SOL    HW1 4955   2.588   1.190   0.743
 1652SOL    HW2 4956   2.535   1.250   0.871
 1653SOL    OW  4957   2.686   1.201   0.586
 1653SOL    HW1 4958   2.644   1.197   0.500
 1653SOL    HW2 4959   2.741   1.279   0.583
 1654SOL    OW  4960   3.312   1.180   0.596
 1654SOL    HW1 4961   3.255   1.256   0.609
 1654SOL    HW2 4962   3.361   1.173   0.678
 1655SOL    OW  4963   3.428   1.203   0.841
 1655SOL    HW1 4964   3.403   1.277   0.896
 1655SOL    HW2 4965   3.523   1.210   0.831
 1656SOL    OW  4966   3.467   1.183   0.377
 1656SOL    HW1 4967   3.409   1.189   0.453
 1656SOL    HW2 4968   3.469   1.090   0.355
 1657SOL    OW  4969   2.492   1.228   1.531
 1657SOL    HW1 4970   2.401   1.201   1.542
 1657SOL    HW2 4971   2.537   1.148   1.502
 1658SOL    OW  4972   2.776   2.244   1.166
 1658SOL    HW1 4973   2.802   2.336   1.169
 1658SOL    HW2 4974   2.854   2.196   1.197
 1659SOL    OW  4975   3.340   2.132   0.998
 1659SOL    HW1 4976   3.359   2.198   0.932
 1659SOL    HW2 4977   3.422   2.083   1.008
 1660SOL    OW  4978   2.645   2.158   2.117
 1660SOL    HW1 4979   2.609   2.242   2.087
 1660SOL    HW2 4980   2.681   2.177   2.204
 1661SOL    OW  4981   2.628   2.234   1.381
 1661SOL    HW1 4982   2.686   2.182   1.437
 1661SOL    HW2 4983   2.672   2.235   1.296
 1662SOL    OW  4984   2.851   2.180   1.759
 1662SOL    HW1 4985   2.797   2.258   1.774
 1662SOL    HW2 4986   2.831   2.122   1.832
 1663SOL    OW  4987   3.131   2.135   1.779
 1663SOL    HW1 4988   3.039   2.155   1.759
 1663SOL    HW2 4989   3.177   2.218   1.769
 1664SOL    OW  4990   3.411   2.109   1.412
 1664SOL    HW1 4991   3.425   2.194   1.453
 1664SOL    HW2 4992   3.339   2.070   1.461
 1665SOL    OW  4993   3.385   2.143   2.153
 1665SOL    HW1 4994   3.314   2.172   2.211
 1665SOL    HW2 4995   3.447   2.099   2.212
 1666SOL    OW  4996   2.428   2.021   2.250
 1666SOL    HW1 4997   2.432   1.940   2.200
 1666SOL    HW2 4998   2.489   2.080   2.204
 1667SOL    OW  4999   2.783   2.061   1.519
 1667SOL    HW1 5000   2.808   2.100   1.603
 1667SOL    HW2 5001   2.726   1.988   1.543
 1668SOL    OW  5002   2.796   2.006   1.942
 1668SOL    HW1 5003   2.764   2.078   1.997
 1668SOL    HW2 5004   2.866   1.966   1.993
 1669SOL    OW  5005   3.227   2.261   1.230
 1669SOL    HW1 5006   3.259   2.218   1.150
 1669SOL    HW2 5007   3.290   2.236   1.297
 1670SOL    OW  5008   3.209   1.994   2.002
 1670SOL    HW1 5009   3.190   2.055   1.931
 1670SOL    HW2 5010   3.276   2.038   2.055
 1671SOL    OW  5011   3.208   2.016   1.543
 1671SOL    HW1 5012   3.195   2.050   1.631
 1671SOL    HW2 5013   3.254   1.933   1.555
 1672SOL    OW  5014   2.389   2.066   1.321
 1672SOL    HW1 5015   2.307   2.105   1.353
 1672SOL    HW2 5016   2.456   2.131   1.343
 1673SOL    OW  5017   2.984   1.915   1.409
 1673SOL    HW1 5018   2.909   1.960   1.447
 1673SOL    HW2 5019   3.060   1.956   1.449
 1674SOL    OW  5020   2.972   1.899   2.136
 1674SOL    HW1 5021   2.968   1.944   2.220
 1674SOL    HW2 5022   3.053   1.931   2.095
 1675SOL    OW  5023   2.397   1.853   1.502
 1675SOL    HW1 5024   2.483   1.849   1.544
 1675SOL    HW2 5025   2.402   1.930   1.445
 1676SOL    OW  5026   2.363   1.819   2.054
 1676SOL    HW1 5027   2.387   1.745   2.109
 1676SOL    HW2 5028   2.438   1.831   1.996
 1677SOL    OW  5029   2.640   1.834   1.594
 1677SOL    HW1 5030   2.634   1.827   1.689
 1677SOL    HW2 5031   2.661   1.745   1.565
 1678SOL    OW  5032   2.608   1.806   1.889
 1678SOL    HW1 5033   2.653   1.885   1.919
 1678SOL    HW2 5034   2.665   1.734   1.917
 1679SOL    OW  5035   0.200   1.412   1.398
 1679SOL    HW1 5036   0.121   1.464   1.383
 1679SOL    HW2 5037   0.259   1.470   1.446
 1680SOL    OW  5038   3.348   1.780   1.912
 1680SOL    HW1 5039   3.417   1.760   1.975
 1680SOL    HW2 5040   3.321   1.870   1.932
 1681SOL    OW  5041   3.004   1.608   2.150
 1681SOL    HW1 5042   3.002   1.702   2.169
 1681SOL    HW2 5043   2.996   1.566   2.235
 1682SOL    OW  5044   2.964   1.639   1.428
 1682SOL    HW1 5045   2.964   1.734   1.418
 1682SOL    HW2 5046   3.042   1.619   1.479
 1683SOL    OW  5047   2.371   1.616   1.356
 1683SOL    HW1 5048   2.381   1.692   1.414
 1683SOL    HW2 5049   2.453   1.567   1.367
 1684SOL    OW  5050   2.761   1.574   2.020
 1684SOL    HW1 5051   2.702   1.520   2.072
 1684SOL    HW2 5052   2.845   1.570   2.065
 1685SOL    OW  5053   2.718   1.571   1.549
 1685SOL    HW1 5054   2.725   1.528   1.634
 1685SOL    HW2 5055   2.808   1.587   1.522
 1686SOL    OW  5056   0.214   2.187   1.429
 1686SOL    HW1 5057   0.259   2.232   1.357
 1686SOL    HW2 5058   0.283   2.135   1.471
 1687SOL    OW  5059   3.226   1.547   2.011
 1687SOL    HW1 5060   3.150   1.567   2.066
 1687SOL    HW2 5061   3.251   1.631   1.973
 1688SOL    OW  5062   2.591   1.421   2.185
 1688SOL    HW1 5063   2.557   1.353   2.127
 1688SOL    HW2 5064   2.629   1.373   2.259
 1689SOL    OW  5065   2.575   1.429   1.370
 1689SOL    HW1 5066   2.539   1.355   1.419
 1689SOL    HW2 5067   2.630   1.475   1.434
 1690SOL    OW  5068   2.764   1.330   1.207
 1690SOL    HW1 5069   2.702   1.371   1.268
 1690SOL    HW2 5070   2.841   1.388   1.209
 1691SOL    OW  5071   2.803   1.449   1.786
 1691SOL    HW1 5072   2.781   1.488   1.871
 1691SOL    HW2 5073   2.887   1.406   1.801
 1692SOL    OW  5074   3.378   1.412   1.435
 1692SOL    HW1 5075   3.414   1.343   1.491
 1692SOL    HW2 5076   3.456   1.459   1.403
 1693SOL    OW  5077   3.216   1.335   2.370
 1693SOL    HW1 5078   3.273   1.360   2.298
 1693SOL    HW2 5079   3.270   1.346   2.448
 1694SOL    OW  5080   2.968   1.517   1.197
 1694SOL    HW1 5081   2.966   1.566   1.279
 1694SOL    HW2 5082   3.048   1.465   1.202
 1695SOL    OW  5083   3.088   1.390   1.811
 1695SOL    HW1 5084   3.140   1.448   1.867
 1695SOL    HW2 5085   3.104   1.422   1.722
 1696SOL    OW  5086   2.383   1.609   2.242
 1696SOL    HW1 5087   2.374   1.602   2.337
 1696SOL    HW2 5088   2.455   1.550   2.220
 1697SOL    OW  5089   3.218   1.384   1.221
 1697SOL    HW1 5090   3.284   1.400   1.289
 1697SOL    HW2 5091   3.263   1.404   1.139
 1698SOL    OW  5092   2.515   1.216   2.039
 1698SOL    HW1 5093   2.534   1.133   2.082
 1698SOL    HW2 5094   2.555   1.208   1.952
 1699SOL    OW  5095   2.641   1.214   1.797
 1699SOL    HW1 5096   2.579   1.243   1.729
 1699SOL    HW2 5097   2.707   1.284   1.800
 1700SOL    OW  5098   3.252   1.158   1.826
 1700SOL    HW1 5099   3.199   1.234   1.854
 1700SOL    HW2 5100   3.317   1.148   1.895
 1701SOL    OW  5101   3.459   1.135   2.012
 1701SOL    HW1 5102   3.442   1.071   2.081
 1701SOL    HW2 5103   3.555   1.135   2.002
 1702SOL    OW  5104   3.435   1.189   1.614
 1702SOL    HW1 5105   3.376   1.175   1.688
 1702SOL    HW2 5106   3.522   1.172   1.649
 1703SOL    OW  5107   2.518   1.217   2.744
 1703SOL    HW1 5108   2.430   1.217   2.782
 1703SOL    HW2 5109   2.527   1.130   2.705
 1704SOL    OW  5110   2.746   2.242   2.360
 1704SOL    HW1 5111   2.755   2.337   2.357
 1704SOL    HW2 5112   2.705   2.224   2.445
 1705SOL    OW  5113   3.211   2.220   2.387
 1705SOL    HW1 5114   3.199   2.315   2.376
 1705SOL    HW2 5115   3.124   2.183   2.375
 1706SOL    OW  5116   2.609   2.155   3.386
 1706SOL    HW1 5117   2.585   2.238   3.345
 1706SOL    HW2 5118   2.684   2.176   3.442
 1707SOL    OW  5119   2.660   2.159   2.593
 1707SOL    HW1 5120   2.707   2.093   2.644
 1707SOL    HW2 5121   2.573   2.121   2.578
 1708SOL    OW  5122   2.846   2.134   2.961
 1708SOL    HW1 5123   2.805   2.220   2.972
 1708SOL    HW2 5124   2.819   2.084   3.037
 1709SOL    OW  5125   3.141   2.131   2.968
 1709SOL    HW1 5126   3.046   2.141   2.966
 1709SOL    HW2 5127   3.175   2.219   2.955
 1710SOL    OW  5128   3.381   2.173   2.615
 1710SOL    HW1 5129   3.403   2.256   2.658
 1710SOL    HW2 5130   3.319   2.198   2.546
 1711SOL    OW  5131   3.364   2.163   3.348
 1711SOL    HW1 5132   3.395   2.225   3.282
 1711SOL    HW2 5133   3.443   2.119   3.379
 1712SOL    OW  5134   2.368   2.006   3.447
 1712SOL    HW1 5135   2.376   1.985   3.540
 1712SOL    HW2 5136   2.449   2.053   3.426
 1713SOL    OW  5137   2.815   1.985   2.726
 1713SOL    HW1 5138   2.820   2.027   2.812
 1713SOL    HW2 5139   2.752   1.914   2.738
 1714SOL    OW  5140   2.780   2.012   3.203
 1714SOL    HW1 5141   2.738   2.058   3.275
 1714SOL    HW2 5142   2.846   1.957   3.246
 1715SOL    OW  5143   2.966   2.082   2.360
 1715SOL    HW1 5144   2.967   2.035   2.444
 1715SOL    HW2 5145   2.890   2.140   2.366
 1716SOL    OW  5146   3.183   2.007   3.217
 1716SOL    HW1 5147   3.160   2.048   3.133
 1716SOL    HW2 5148   3.248   2.066   3.255
 1717SOL    OW  5149   3.239   1.974   2.737
 1717SOL    HW1 5150   3.202   2.028   2.807
 1717SOL    HW2 5151   3.310   2.028   2.700
 1718SOL    OW  5152   2.410   2.049   2.540
 1718SOL    HW1 5153   2.323   2.085   2.558
 1718SOL    HW2 5154   2.408   2.026   2.447
 1719SOL    OW  5155   3.040   1.907   2.564
 1719SOL    HW1 5156   2.967   1.934   2.620
 1719SOL    HW2 5157   3.118   1.928   2.615
 1720SOL    OW  5158   2.989   1.903   3.383
 1720SOL    HW1 5159   2.983   1.958   3.461
 1720SOL    HW2 5160   3.064   1.936   3.335
 1721SOL    OW  5161   2.418   1.810   2.669
 1721SOL    HW1 5162   2.408   1.892   2.622
 1721SOL    HW2 5163   2.492   1.825   2.728
 1722SOL    OW  5164   2.392   1.771   3.275
 1722SOL    HW1 5165   2.386   1.842   3.338
 1722SOL    HW2 5166   2.459   1.799   3.213
 1723SOL    OW  5167   2.638   1.831   2.843
 1723SOL    HW1 5168   2.640   1.837   2.938
 1723SOL    HW2 5169   2.678   1.747   2.823
 1724SOL    OW  5170   2.604   1.821   3.100
 1724SOL    HW1 5171   2.652   1.893   3.140
 1724SOL    HW2 5172   2.653   1.743   3.123
 1725SOL    OW  5173   3.239   1.541   2.804
 1725SOL    HW1 5174   3.286   1.623   2.816
 1725SOL    HW2 5175   3.283   1.498   2.730
 1726SOL    OW  5176   3.390   1.770   2.846
 1726SOL    HW1 5177   3.481   1.759   2.820
 1726SOL    HW2 5178   3.360   1.847   2.798
 1727SOL    OW  5179   3.137   1.391   3.023
 1727SOL    HW1 5180   3.181   1.440   2.954
 1727SOL    HW2 5181   3.153   1.442   3.103
 1728SOL    OW  5182   3.032   1.638   2.654
 1728SOL    HW1 5183   3.069   1.717   2.614
 1728SOL    HW2 5184   3.098   1.610   2.718
 1729SOL    OW  5185   2.383   1.588   2.525
 1729SOL    HW1 5186   2.386   1.677   2.561
 1729SOL    HW2 5187   2.466   1.549   2.550
 1730SOL    OW  5188   2.735   1.587   3.146
 1730SOL    HW1 5189   2.673   1.541   3.202
 1730SOL    HW2 5190   2.820   1.576   3.189
 1731SOL    OW  5191   2.751   1.593   2.780
 1731SOL    HW1 5192   2.770   1.521   2.840
 1731SOL    HW2 5193   2.837   1.616   2.744
 1732SOL    OW  5194   3.213   1.572   3.226
 1732SOL    HW1 5195   3.265   1.509   3.276
 1732SOL    HW2 5196   3.278   1.630   3.187
 1733SOL    OW  5197   3.369   1.791   3.153
 1733SOL    HW1 5198   3.318   1.870   3.170
 1733SOL    HW2 5199   3.377   1.788   3.058
 1734SOL    OW  5200   2.627   1.444   3.374
 1734SOL    HW1 5201   2.537   1.446   3.407
 1734SOL    HW2 5202   2.679   1.408   3.446
 1735SOL    OW  5203   2.627   1.455   2.595
 1735SOL    HW1 5204   2.592   1.378   2.640
 1735SOL    HW2 5205   2.678   1.500   2.661
 1736SOL    OW  5206   2.751   1.314   2.394
 1736SOL    HW1 5207   2.712   1.364   2.466
 1736SOL    HW2 5208   2.840   1.350   2.385
 1737SOL    OW  5209   2.841   1.405   2.972
 1737SOL    HW1 5210   2.797   1.457   3.039
 1737SOL    HW2 5211   2.933   1.404   2.998
 1738SOL    OW  5212   3.559   1.791   2.095
 1738SOL    HW1 5213   3.594   1.712   2.138
 1738SOL    HW2 5214   3.572   1.861   2.159
 1739SOL    OW  5215   3.389   1.398   3.326
 1739SOL    HW1 5216   3.351   1.347   3.397
 1739SOL    HW2 5217   3.469   1.435   3.364
 1740SOL    OW  5218   2.977   1.492   2.418
 1740SOL    HW1 5219   2.997   1.542   2.497
 1740SOL    HW2 5220   3.055   1.438   2.404
 1741SOL    OW  5221   3.302   1.168   2.964
 1741SOL    HW1 5222   3.360   1.169   3.040
 1741SOL    HW2 5223   3.245   1.244   2.977
 1742SOL    OW  5224   2.365   1.521   3.477
 1742SOL    HW1 5225   2.371   1.553   3.567
 1742SOL    HW2 5226   2.360   1.599   3.423
 1743SOL    OW  5227   3.370   1.403   2.599
 1743SOL    HW1 5228   3.386   1.322   2.647
 1743SOL    HW2 5229   3.457   1.437   2.579
 1744SOL    OW  5230   2.535   1.196   3.214
 1744SOL    HW1 5231   2.557   1.283   3.248
 1744SOL    HW2 5232   2.590   1.186   3.136
 1745SOL    OW  5233   2.689   1.180   2.942
 1745SOL    HW1 5234   2.620   1.204   2.881
 1745SOL    HW2 5235   2.737   1.262   2.957
 1746SOL    OW  5236   3.147   0.941   3.003
 1746SOL    HW1 5237   3.053   0.955   2.994
 1746SOL    HW2 5238   3.186   1.026   2.984
 1747SOL    OW  5239   3.475   1.186   3.176
 1747SOL    HW1 5240   3.448   1.272   3.207
 1747SOL    HW2 5241   3.569   1.183   3.191
 1748SOL    OW  5242   3.470   1.190   2.740
 1748SOL    HW1 5243   3.417   1.185   2.820
 1748SOL    HW2 5244   3.439   1.117   2.687
 1749SOL    OW  5245   2.527   1.178   3.987
 1749SOL    HW1 5246   2.438   1.177   4.021
 1749SOL    HW2 5247   2.532   1.101   3.930
 1750SOL    OW  5248   2.777   2.252   3.585
 1750SOL    HW1 5249   2.809   2.342   3.581
 1750SOL    HW2 5250   2.854   2.198   3.566
 1751SOL    OW  5251   3.262   2.235   3.576
 1751SOL    HW1 5252   3.236   2.326   3.558
 1751SOL    HW2 5253   3.300   2.204   3.494
 1752SOL    OW  5254   2.589   2.164   4.534
 1752SOL    HW1 5255   2.510   2.124   4.572
 1752SOL    HW2 5256   2.559   2.247   4.497
 1753SOL    OW  5257   2.616   2.162   3.783
 1753SOL    HW1 5258   2.676   2.099   3.823
 1753SOL    HW2 5259   2.664   2.195   3.707
 1754SOL    OW  5260   2.833   2.140   4.185
 1754SOL    HW1 5261   2.778   2.217   4.190
 1754SOL    HW2 5262   2.815   2.091   4.265
 1755SOL    OW  5263   3.283   2.404   4.186
 1755SOL    HW1 5264   3.218   2.472   4.202
 1755SOL    HW2 5265   3.351   2.418   4.252
 1756SOL    OW  5266   3.394   2.153   3.811
 1756SOL    HW1 5267   3.331   2.103   3.863
 1756SOL    HW2 5268   3.344   2.181   3.734
 1757SOL    OW  5269   3.368   2.176   4.548
 1757SOL    HW1 5270   3.392   2.255   4.500
 1757SOL    HW2 5271   3.442   2.116   4.532
 1758SOL    OW  5272   2.380   2.015   4.648
 1758SOL    HW1 5273   2.385   1.999   4.742
 1758SOL    HW2 5274   2.293   2.051   4.634
 1759SOL    OW  5275   2.778   1.986   3.914
 1759SOL    HW1 5276   2.808   2.036   3.990
 1759SOL    HW2 5277   2.735   1.910   3.952
 1760SOL    OW  5278   2.766   2.005   4.407
 1760SOL    HW1 5279   2.709   2.054   4.465
 1760SOL    HW2 5280   2.841   1.981   4.461
 1761SOL    OW  5281   3.005   2.091   3.567
 1761SOL    HW1 5282   2.999   2.023   3.633
 1761SOL    HW2 5283   3.092   2.130   3.580
 1762SOL    OW  5284   3.130   2.144   4.209
 1762SOL    HW1 5285   3.035   2.151   4.199
 1762SOL    HW2 5286   3.164   2.229   4.180
 1763SOL    OW  5287   3.209   2.024   3.958
 1763SOL    HW1 5288   3.181   2.075   4.034
 1763SOL    HW2 5289   3.244   1.943   3.995
 1764SOL    OW  5290   2.392   1.990   3.760
 1764SOL    HW1 5291   2.310   2.038   3.761
 1764SOL    HW2 5292   2.460   2.058   3.767
 1765SOL    OW  5293   3.017   1.919   3.782
 1765SOL    HW1 5294   2.944   1.944   3.839
 1765SOL    HW2 5295   3.095   1.940   3.833
 1766SOL    OW  5296   2.978   1.927   4.570
 1766SOL    HW1 5297   2.973   2.001   4.630
 1766SOL    HW2 5298   3.060   1.940   4.522
 1767SOL    OW  5299   2.410   1.776   3.934
 1767SOL    HW1 5300   2.419   1.854   3.879
 1767SOL    HW2 5301   2.493   1.771   3.981
 1768SOL    OW  5302   2.408   1.765   4.481
 1768SOL    HW1 5303   2.415   1.847   4.529
 1768SOL    HW2 5304   2.480   1.768   4.417
 1769SOL    OW  5305   2.660   1.779   4.030
 1769SOL    HW1 5306   2.642   1.756   4.121
 1769SOL    HW2 5307   2.705   1.703   3.994
 1770SOL    OW  5308   2.633   1.770   4.303
 1770SOL    HW1 5309   2.693   1.842   4.321
 1770SOL    HW2 5310   2.680   1.692   4.330
 1771SOL    OW  5311   3.335   1.782   4.048
 1771SOL    HW1 5312   3.423   1.783   4.011
 1771SOL    HW2 5313   3.349   1.772   4.142
 1772SOL    OW  5314   3.196   1.999   4.429
 1772SOL    HW1 5315   3.169   2.041   4.347
 1772SOL    HW2 5316   3.237   2.068   4.480
 1773SOL    OW  5317   2.956   1.626   4.562
 1773SOL    HW1 5318   2.952   1.721   4.577
 1773SOL    HW2 5319   3.038   1.613   4.514
 1774SOL    OW  5320   2.958   1.623   3.283
 1774SOL    HW1 5321   3.052   1.623   3.264
 1774SOL    HW2 5322   2.942   1.709   3.323
 1775SOL    OW  5323   2.372   1.537   3.782
 1775SOL    HW1 5324   2.399   1.620   3.822
 1775SOL    HW2 5325   2.454   1.489   3.770
 1776SOL    OW  5326   2.765   1.551   4.375
 1776SOL    HW1 5327   2.694   1.512   4.427
 1776SOL    HW2 5328   2.830   1.578   4.440
 1777SOL    OW  5329   2.780   1.570   3.898
 1777SOL    HW1 5330   2.819   1.531   3.977
 1777SOL    HW2 5331   2.853   1.576   3.837
 1778SOL    OW  5332   3.254   1.546   3.957
 1778SOL    HW1 5333   3.307   1.619   3.987
 1778SOL    HW2 5334   3.181   1.587   3.910
 1779SOL    OW  5335   3.536   1.815   4.483
 1779SOL    HW1 5336   3.541   1.897   4.532
 1779SOL    HW2 5337   3.614   1.815   4.427
 1780SOL    OW  5338   2.580   1.440   4.539
 1780SOL    HW1 5339   2.495   1.462   4.578
 1780SOL    HW2 5340   2.638   1.427   4.615
 1781SOL    OW  5341   2.589   1.375   3.802
 1781SOL    HW1 5342   2.569   1.304   3.862
 1781SOL    HW2 5343   2.655   1.428   3.849
 1782SOL    OW  5344   3.037   1.477   3.521
 1782SOL    HW1 5345   2.958   1.440   3.561
 1782SOL    HW2 5346   3.006   1.512   3.437
 1783SOL    OW  5347   2.836   1.417   4.146
 1783SOL    HW1 5348   2.798   1.458   4.223
 1783SOL    HW2 5349   2.929   1.407   4.168
 1784SOL    OW  5350   3.367   1.380   3.764
 1784SOL    HW1 5351   3.335   1.418   3.846
 1784SOL    HW2 5352   3.439   1.438   3.738
 1785SOL    OW  5353   3.328   1.779   4.330
 1785SOL    HW1 5354   3.284   1.858   4.360
 1785SOL    HW2 5355   3.408   1.775   4.381
 1786SOL    OW  5356   3.027   1.625   3.772
 1786SOL    HW1 5357   3.059   1.596   3.686
 1786SOL    HW2 5358   3.014   1.719   3.762
 1787SOL    OW  5359   3.122   1.402   4.156
 1787SOL    HW1 5360   3.138   1.472   4.220
 1787SOL    HW2 5361   3.156   1.437   4.073
 1788SOL    OW  5362   2.368   1.541   4.668
 1788SOL    HW1 5363   2.407   1.555   4.754
 1788SOL    HW2 5364   2.372   1.627   4.626
 1789SOL    OW  5365   3.225   1.289   3.524
 1789SOL    HW1 5366   3.161   1.359   3.514
 1789SOL    HW2 5367   3.271   1.310   3.606
 1790SOL    OW  5368   2.508   1.204   4.419
 1790SOL    HW1 5369   2.532   1.284   4.466
 1790SOL    HW2 5370   2.571   1.199   4.347
 1791SOL    OW  5371   2.699   1.181   4.202
 1791SOL    HW1 5372   2.664   1.162   4.115
 1791SOL    HW2 5373   2.756   1.257   4.189
 1792SOL    OW  5374   3.293   1.184   4.167
 1792SOL    HW1 5375   3.229   1.255   4.163
 1792SOL    HW2 5376   3.342   1.201   4.248
 1793SOL    OW  5377   3.335   1.404   4.549
 1793SOL    HW1 5378   3.290   1.402   4.634
 1793SOL    HW2 5379   3.415   1.453   4.566
 1794SOL    OW  5380   3.420   1.148   3.918
 1794SOL    HW1 5381   3.371   1.171   3.997
 1794SOL    HW2 5382   3.426   1.230   3.869
 1795SOL    OW  5383   2.501   1.198   5.207
 1795SOL    HW1 5384   2.406   1.198   5.191
 1795SOL    HW2 5385   2.536   1.137   5.142
 1796SOL    OW  5386   2.725   2.237   4.807
 1796SOL    HW1 5387   2.673   2.228   4.727
 1796SOL    HW2 5388   2.751   2.329   4.809
 1797SOL    OW  5389   3.207   2.493   4.786
 1797SOL    HW1 5390   3.258   2.531   4.714
 1797SOL    HW2 5391   3.214   2.398   4.773
 1798SOL    OW  5392   2.546   2.145   5.791
 1798SOL    HW1 5393   2.518   2.224   5.746
 1798SOL    HW2 5394   2.622   2.173   5.842
 1799SOL    OW  5395   2.563   2.156   5.038
 1799SOL    HW1 5396   2.645   2.128   5.080
 1799SOL    HW2 5397   2.591   2.202   4.959
 1800SOL    OW  5398   2.859   2.175   5.429
 1800SOL    HW1 5399   2.790   2.241   5.428
 1800SOL    HW2 5400   2.827   2.109   5.491
 1801SOL    OW  5401   3.146   2.173   5.405
 1801SOL    HW1 5402   3.054   2.190   5.428
 1801SOL    HW2 5403   3.189   2.258   5.414
 1802SOL    OW  5404   3.320   2.649   4.985
 1802SOL    HW1 5405   3.394   2.687   4.937
 1802SOL    HW2 5406   3.265   2.609   4.918
 1803SOL    OW  5407   3.301   2.145   5.774
 1803SOL    HW1 5408   3.322   2.228   5.733
 1803SOL    HW2 5409   3.384   2.098   5.778
 1804SOL    OW  5410   2.334   1.989   5.876
 1804SOL    HW1 5411   2.317   1.985   5.970
 1804SOL    HW2 5412   2.408   2.049   5.868
 1805SOL    OW  5413   2.794   2.047   5.173
 1805SOL    HW1 5414   2.816   2.100   5.250
 1805SOL    HW2 5415   2.736   1.979   5.206
 1806SOL    OW  5416   2.722   1.984   5.613
 1806SOL    HW1 5417   2.672   2.025   5.684
 1806SOL    HW2 5418   2.798   1.944   5.656
 1807SOL    OW  5419   3.253   2.240   4.768
 1807SOL    HW1 5420   3.170   2.194   4.760
 1807SOL    HW2 5421   3.304   2.209   4.692
 1808SOL    OW  5422   3.179   1.980   5.592
 1808SOL    HW1 5423   3.172   2.043   5.520
 1808SOL    HW2 5424   3.218   2.029   5.663
 1809SOL    OW  5425   3.368   2.178   5.025
 1809SOL    HW1 5426   3.320   2.108   5.069
 1809SOL    HW2 5427   3.321   2.189   4.942
 1810SOL    OW  5428   2.368   2.009   4.927
 1810SOL    HW1 5429   2.289   2.060   4.948
 1810SOL    HW2 5430   2.439   2.057   4.970
 1811SOL    OW  5431   2.991   2.132   4.786
 1811SOL    HW1 5432   2.905   2.173   4.787
 1811SOL    HW2 5433   2.983   2.057   4.846
 1812SOL    OW  5434   2.961   1.933   5.753
 1812SOL    HW1 5435   2.985   1.991   5.825
 1812SOL    HW2 5436   3.035   1.937   5.693
 1813SOL    OW  5437   2.402   1.781   5.096
 1813SOL    HW1 5438   2.381   1.853   5.038
 1813SOL    HW2 5439   2.483   1.808   5.139
 1814SOL    OW  5440   2.361   1.779   5.684
 1814SOL    HW1 5441   2.373   1.850   5.747
 1814SOL    HW2 5442   2.435   1.788   5.623
 1815SOL    OW  5443   2.637   1.827   5.251
 1815SOL    HW1 5444   2.604   1.806   5.338
 1815SOL    HW2 5445   2.681   1.747   5.222
 1816SOL    OW  5446   2.563   1.785   5.510
 1816SOL    HW1 5447   2.623   1.856   5.531
 1816SOL    HW2 5448   2.604   1.706   5.546
 1817SOL    OW  5449   3.208   1.973   5.134
 1817SOL    HW1 5450   3.260   1.902   5.171
 1817SOL    HW2 5451   3.184   2.028   5.209
 1818SOL    OW  5452   3.357   1.756   5.544
 1818SOL    HW1 5453   3.293   1.823   5.571
 1818SOL    HW2 5454   3.436   1.777   5.594
 1819SOL    OW  5455   3.012   1.668   5.770
 1819SOL    HW1 5456   3.006   1.760   5.796
 1819SOL    HW2 5457   3.011   1.620   5.853
 1820SOL    OW  5458   2.976   1.934   4.995
 1820SOL    HW1 5459   2.912   1.988   5.042
 1820SOL    HW2 5460   3.058   1.947   5.043
 1821SOL    OW  5461   2.406   1.559   4.952
 1821SOL    HW1 5462   2.409   1.645   4.995
 1821SOL    HW2 5463   2.473   1.508   4.997
 1822SOL    OW  5464   2.823   1.464   5.413
 1822SOL    HW1 5465   2.811   1.522   5.488
 1822SOL    HW2 5466   2.912   1.430   5.422
 1823SOL    OW  5467   2.756   1.589   5.167
 1823SOL    HW1 5468   2.797   1.547   5.243
 1823SOL    HW2 5469   2.829   1.617   5.112
 1824SOL    OW  5470   3.346   1.776   5.258
 1824SOL    HW1 5471   3.350   1.769   5.354
 1824SOL    HW2 5472   3.437   1.786   5.231
 1825SOL    OW  5473   3.201   1.535   5.639
 1825SOL    HW1 5474   3.137   1.581   5.692
 1825SOL    HW2 5475   3.261   1.604   5.609
 1826SOL    OW  5476   2.779   1.620   5.620
 1826SOL    HW1 5477   2.733   1.552   5.669
 1826SOL    HW2 5478   2.853   1.643   5.675
 1827SOL    OW  5479   2.609   1.379   5.027
 1827SOL    HW1 5480   2.582   1.317   5.095
 1827SOL    HW2 5481   2.661   1.444   5.073
 1828SOL    OW  5482   2.725   1.345   4.778
 1828SOL    HW1 5483   2.806   1.397   4.777
 1828SOL    HW2 5484   2.680   1.373   4.857
 1829SOL    OW  5485   3.176   1.546   5.199
 1829SOL    HW1 5486   3.228   1.621   5.228
 1829SOL    HW2 5487   3.099   1.585   5.159
 1830SOL    OW  5488   2.973   1.665   5.032
 1830SOL    HW1 5489   2.979   1.760   5.019
 1830SOL    HW2 5490   2.984   1.629   4.944
 1831SOL    OW  5491   3.016   1.479   5.972
 1831SOL    HW1 5492   2.992   1.516   6.057
 1831SOL    HW2 5493   3.091   1.423   5.991
 1832SOL    OW  5494   2.936   1.503   4.803
 1832SOL    HW1 5495   3.009   1.441   4.803
 1832SOL    HW2 5496   2.957   1.565   4.734
 1833SOL    OW  5497   3.092   1.396   5.411
 1833SOL    HW1 5498   3.125   1.443   5.488
 1833SOL    HW2 5499   3.120   1.449   5.337
 1834SOL    OW  5500   2.397   1.555   5.845
 1834SOL    HW1 5501   2.401   1.588   5.935
 1834SOL    HW2 5502   2.381   1.633   5.792
 1835SOL    OW  5503   3.172   1.569   4.379
 1835SOL    HW1 5504   3.227   1.512   4.433
 1835SOL    HW2 5505   3.232   1.638   4.348
 1836SOL    OW  5506   2.509   1.227   5.650
 1836SOL    HW1 5507   2.565   1.288   5.698
 1836SOL    HW2 5508   2.564   1.193   5.580
 1837SOL    OW  5509   2.688   1.202   5.412
 1837SOL    HW1 5510   2.621   1.205   5.344
 1837SOL    HW2 5511   2.722   1.292   5.417
 1838SOL    OW  5512   3.279   1.192   5.369
 1838SOL    HW1 5513   3.206   1.251   5.386
 1838SOL    HW2 5514   3.332   1.194   5.448
 1839SOL    OW  5515   3.410   1.163   5.614
 1839SOL    HW1 5516   3.395   1.223   5.687
 1839SOL    HW2 5517   3.504   1.171   5.595
 1840SOL    OW  5518   3.457   1.202   5.151
 1840SOL    HW1 5519   3.431   1.281   5.103
 1840SOL    HW2 5520   3.390   1.192   5.219
 1841SOL    OW  5521   2.497   2.376   0.333
 1841SOL    HW1 5522   2.403   2.368   0.346
 1841SOL    HW2 5523   2.521   2.299   0.281
 1842SOL    OW  5524   2.729   3.451   5.983
 1842SOL    HW1 5525   2.747   3.544   6.000
 1842SOL    HW2 5526   2.816   3.410   5.981
 1843SOL    OW  5527   3.229   3.440   0.014
 1843SOL    HW1 5528   3.245   3.534   0.019
 1843SOL    HW2 5529   3.269   3.414  -0.069
 1844SOL    OW  5530   2.629   3.378   0.998
 1844SOL    HW1 5531   2.599   3.449   0.941
 1844SOL    HW2 5532   2.684   3.421   1.063
 1845SOL    OW  5533   2.579   3.364   0.191
 1845SOL    HW1 5534   2.638   3.325   0.255
 1845SOL    HW2 5535   2.635   3.383   0.115
 1846SOL    OW  5536   2.855   3.366   0.603
 1846SOL    HW1 5537   2.811   3.451   0.598
 1846SOL    HW2 5538   2.827   3.329   0.687
 1847SOL    OW  5539   3.154   3.334   0.611
 1847SOL    HW1 5540   3.069   3.371   0.635
 1847SOL    HW2 5541   3.214   3.409   0.613
 1848SOL    OW  5542   3.420   0.220   0.224
 1848SOL    HW1 5543   3.454   0.146   0.276
 1848SOL    HW2 5544   3.497   0.253   0.178
 1849SOL    OW  5545   3.373   3.384   0.970
 1849SOL    HW1 5546   3.418   3.461   0.935
 1849SOL    HW2 5547   3.442   3.335   1.015
 1850SOL    OW  5548   2.421   3.193   1.074
 1850SOL    HW1 5549   2.390   3.192   1.164
 1850SOL    HW2 5550   2.498   3.249   1.075
 1851SOL    OW  5551   2.736   3.240   0.385
 1851SOL    HW1 5552   2.767   3.276   0.468
 1851SOL    HW2 5553   2.674   3.172   0.410
 1852SOL    OW  5554   2.763   3.202   0.829
 1852SOL    HW1 5555   2.714   3.255   0.892
 1852SOL    HW2 5556   2.835   3.164   0.881
 1853SOL    OW  5557   2.978   3.291   5.987
 1853SOL    HW1 5558   2.987   3.227   6.057
 1853SOL    HW2 5559   3.055   3.348   5.996
 1854SOL    OW  5560   3.169   3.194   0.843
 1854SOL    HW1 5561   3.165   3.231   0.755
 1854SOL    HW2 5562   3.231   3.250   0.890
 1855SOL    OW  5563   3.355   3.373   0.244
 1855SOL    HW1 5564   3.298   3.314   0.294
 1855SOL    HW2 5565   3.306   3.389   0.162
 1856SOL    OW  5566   2.364   2.979   0.275
 1856SOL    HW1 5567   2.380   2.893   0.235
 1856SOL    HW2 5568   2.279   2.970   0.318
 1857SOL    OW  5569   2.976   3.126   0.212
 1857SOL    HW1 5570   2.908   3.181   0.251
 1857SOL    HW2 5571   3.052   3.138   0.268
 1858SOL    OW  5572   2.974   3.100   0.999
 1858SOL    HW1 5573   2.975   3.160   1.073
 1858SOL    HW2 5574   3.047   3.129   0.944
 1859SOL    OW  5575   2.593   3.012   0.432
 1859SOL    HW1 5576   2.514   2.993   0.380
 1859SOL    HW2 5577   2.561   3.014   0.523
 1860SOL    OW  5578   2.408   2.981   0.884
 1860SOL    HW1 5579   2.409   3.056   0.943
 1860SOL    HW2 5580   2.472   3.003   0.816
 1861SOL    OW  5581   2.732   2.764   0.359
 1861SOL    HW1 5582   2.698   2.849   0.389
 1861SOL    HW2 5583   2.753   2.717   0.439
 1862SOL    OW  5584   2.608   3.007   0.702
 1862SOL    HW1 5585   2.652   3.082   0.741
 1862SOL    HW2 5586   2.645   2.931   0.747
 1863SOL    OW  5587   3.191   3.206   0.373
 1863SOL    HW1 5588   3.166   3.241   0.458
 1863SOL    HW2 5589   3.256   3.138   0.392
 1864SOL    OW  5590   3.320   2.969   0.438
 1864SOL    HW1 5591   3.407   2.972   0.399
 1864SOL    HW2 5592   3.336   2.964   0.533
 1865SOL    OW  5593   2.974   2.821   0.996
 1865SOL    HW1 5594   2.962   2.912   1.023
 1865SOL    HW2 5595   2.966   2.772   1.078
 1866SOL    OW  5596   2.988   2.834   0.243
 1866SOL    HW1 5597   2.967   2.927   0.241
 1866SOL    HW2 5598   2.908   2.792   0.274
 1867SOL    OW  5599   2.374   3.205   0.094
 1867SOL    HW1 5600   2.374   3.128   0.151
 1867SOL    HW2 5601   2.455   3.251   0.116
 1868SOL    OW  5602   2.743   2.775   0.795
 1868SOL    HW1 5603   2.689   2.710   0.840
 1868SOL    HW2 5604   2.798   2.812   0.863
 1869SOL    OW  5605   3.179   2.753   0.398
 1869SOL    HW1 5606   3.234   2.830   0.409
 1869SOL    HW2 5607   3.101   2.785   0.353
 1870SOL    OW  5608   3.193   2.761   0.817
 1870SOL    HW1 5609   3.122   2.779   0.879
 1870SOL    HW2 5610   3.221   2.847   0.787
 1871SOL    OW  5611   3.350   2.980   0.732
 1871SOL    HW1 5612   3.311   3.059   0.768
 1871SOL    HW2 5613   3.425   2.962   0.788
 1872SOL    OW  5614   2.581   2.601   0.919
 1872SOL    HW1 5615   2.503   2.644   0.954
 1872SOL    HW2 5616   2.641   2.598   0.993
 1873SOL    OW  5617   2.574   2.601   0.198
 1873SOL    HW1 5618   2.544   2.523   0.245
 1873SOL    HW2 5619   2.615   2.655   0.265
 1874SOL    OW  5620   2.766   2.530   0.008
 1874SOL    HW1 5621   2.707   2.567   0.073
 1874SOL    HW2 5622   2.845   2.584   0.014
 1875SOL    OW  5623   2.815   2.616   0.577
 1875SOL    HW1 5624   2.794   2.661   0.659
 1875SOL    HW2 5625   2.903   2.581   0.591
 1876SOL    OW  5626   3.357   2.585   0.223
 1876SOL    HW1 5627   3.432   2.640   0.200
 1876SOL    HW2 5628   3.312   2.633   0.293
 1877SOL    OW  5629   3.115   2.147   0.619
 1877SOL    HW1 5630   3.021   2.166   0.621
 1877SOL    HW2 5631   3.157   2.232   0.605
 1878SOL    OW  5632   3.003   2.679   0.000
 1878SOL    HW1 5633   3.027   2.751   0.058
 1878SOL    HW2 5634   3.083   2.627  -0.009
 1879SOL    OW  5635   3.084   2.598   0.603
 1879SOL    HW1 5636   3.129   2.642   0.531
 1879SOL    HW2 5637   3.105   2.651   0.680
 1880SOL    OW  5638   2.381   2.748   1.025
 1880SOL    HW1 5639   2.418   2.756   1.113
 1880SOL    HW2 5640   2.405   2.829   0.981
 1881SOL    OW  5641   3.218   2.507   5.986
 1881SOL    HW1 5642   3.288   2.528   5.924
 1881SOL    HW2 5643   3.257   2.522   6.072
 1882SOL    OW  5644   2.478   2.363   0.811
 1882SOL    HW1 5645   2.523   2.437   0.853
 1882SOL    HW2 5646   2.513   2.361   0.722
 1883SOL    OW  5647   2.640   2.395   0.571
 1883SOL    HW1 5648   2.581   2.395   0.495
 1883SOL    HW2 5649   2.687   2.478   0.564
 1884SOL    OW  5650   3.429   2.365   0.388
 1884SOL    HW1 5651   3.366   2.368   0.460
 1884SOL    HW2 5652   3.399   2.433   0.328
 1885SOL    OW  5653   0.089   2.330   0.803
 1885SOL    HW1 5654   0.136   2.353   0.723
 1885SOL    HW2 5655   0.101   2.406   0.861
 1886SOL    OW  5656   3.382   2.142   0.239
 1886SOL    HW1 5657   3.320   2.162   0.169
 1886SOL    HW2 5658   3.400   2.226   0.281
 1887SOL    OW  5659   2.534   2.418   1.549
 1887SOL    HW1 5660   2.439   2.407   1.545
 1887SOL    HW2 5661   2.568   2.346   1.495
 1888SOL    OW  5662   2.781   3.471   1.216
 1888SOL    HW1 5663   2.866   3.428   1.225
 1888SOL    HW2 5664   2.727   3.432   1.285
 1889SOL    OW  5665   3.325   3.418   1.419
 1889SOL    HW1 5666   3.355   3.497   1.465
 1889SOL    HW2 5667   3.308   3.448   1.329
 1890SOL    OW  5668   2.592   3.379   2.155
 1890SOL    HW1 5669   2.573   3.452   2.096
 1890SOL    HW2 5670   2.651   3.416   2.220
 1891SOL    OW  5671   2.614   3.372   1.411
 1891SOL    HW1 5672   2.668   3.303   1.450
 1891SOL    HW2 5673   2.544   3.325   1.366
 1892SOL    OW  5674   2.847   3.318   1.808
 1892SOL    HW1 5675   2.802   3.402   1.797
 1892SOL    HW2 5676   2.820   3.288   1.895
 1893SOL    OW  5677   3.156   3.322   1.810
 1893SOL    HW1 5678   3.063   3.337   1.792
 1893SOL    HW2 5679   3.193   3.410   1.818
 1894SOL    OW  5680   3.238   3.191   1.593
 1894SOL    HW1 5681   3.229   3.229   1.680
 1894SOL    HW2 5682   3.272   3.262   1.539
 1895SOL    OW  5683   3.349   3.345   2.185
 1895SOL    HW1 5684   3.379   3.404   2.116
 1895SOL    HW2 5685   3.430   3.308   2.220
 1896SOL    OW  5686   2.385   3.219   2.218
 1896SOL    HW1 5687   2.403   3.202   2.311
 1896SOL    HW2 5688   2.458   3.274   2.189
 1897SOL    OW  5689   2.767   3.199   1.561
 1897SOL    HW1 5690   2.779   3.242   1.646
 1897SOL    HW2 5691   2.717   3.120   1.581
 1898SOL    OW  5692   2.748   3.194   2.034
 1898SOL    HW1 5693   2.715   3.266   2.089
 1898SOL    HW2 5694   2.831   3.170   2.074
 1899SOL    OW  5695   3.019   3.329   1.198
 1899SOL    HW1 5696   3.031   3.311   1.291
 1899SOL    HW2 5697   3.085   3.396   1.178
 1900SOL    OW  5698   3.188   3.150   2.044
 1900SOL    HW1 5699   3.160   3.199   1.967
 1900SOL    HW2 5700   3.261   3.200   2.080
 1901SOL    OW  5701   3.415   2.972   1.654
 1901SOL    HW1 5702   3.431   2.971   1.749
 1901SOL    HW2 5703   3.359   3.049   1.640
 1902SOL    OW  5704   2.406   3.237   1.345
 1902SOL    HW1 5705   2.338   3.289   1.388
 1902SOL    HW2 5706   2.416   3.160   1.401
 1903SOL    OW  5707   3.013   3.138   1.431
 1903SOL    HW1 5708   2.929   3.165   1.469
 1903SOL    HW2 5709   3.078   3.162   1.497
 1904SOL    OW  5710   2.965   3.108   2.181
 1904SOL    HW1 5711   2.979   3.164   2.257
 1904SOL    HW2 5712   3.047   3.114   2.132
 1905SOL    OW  5713   2.362   2.997   1.474
 1905SOL    HW1 5714   2.356   2.929   1.407
 1905SOL    HW2 5715   2.444   2.977   1.521
 1906SOL    OW  5716   2.382   2.974   2.080
 1906SOL    HW1 5717   2.367   3.049   2.137
 1906SOL    HW2 5718   2.449   3.003   2.019
 1907SOL    OW  5719   2.604   2.985   1.608
 1907SOL    HW1 5720   2.580   2.980   1.700
 1907SOL    HW2 5721   2.673   2.919   1.597
 1908SOL    OW  5722   2.602   3.003   1.883
 1908SOL    HW1 5723   2.634   3.085   1.922
 1908SOL    HW2 5724   2.656   2.935   1.923
 1909SOL    OW  5725   0.021   2.968   1.464
 1909SOL    HW1 5726  -0.056   2.956   1.520
 1909SOL    HW2 5727   0.001   3.046   1.413
 1910SOL    OW  5728   3.371   2.982   1.918
 1910SOL    HW1 5729   3.316   3.050   1.957
 1910SOL    HW2 5730   3.449   2.981   1.974
 1911SOL    OW  5731   2.945   2.828   2.173
 1911SOL    HW1 5732   2.953   2.921   2.196
 1911SOL    HW2 5733   3.025   2.808   2.125
 1912SOL    OW  5734   2.971   2.667   1.215
 1912SOL    HW1 5735   2.971   2.736   1.281
 1912SOL    HW2 5736   3.056   2.625   1.224
 1913SOL    OW  5737   2.402   2.773   1.326
 1913SOL    HW1 5738   2.335   2.705   1.331
 1913SOL    HW2 5739   2.483   2.730   1.353
 1914SOL    OW  5740   2.725   2.786   1.995
 1914SOL    HW1 5741   2.678   2.715   2.039
 1914SOL    HW2 5742   2.794   2.810   2.056
 1915SOL    OW  5743   2.785   2.790   1.583
 1915SOL    HW1 5744   2.820   2.733   1.652
 1915SOL    HW2 5745   2.861   2.816   1.533
 1916SOL    OW  5746   3.022   2.854   1.423
 1916SOL    HW1 5747   3.023   2.949   1.418
 1916SOL    HW2 5748   3.105   2.831   1.464
 1917SOL    OW  5749   3.192   2.777   2.041
 1917SOL    HW1 5750   3.256   2.720   2.085
 1917SOL    HW2 5751   3.245   2.845   1.999
 1918SOL    OW  5752   2.599   2.578   2.165
 1918SOL    HW1 5753   2.649   2.572   2.247
 1918SOL    HW2 5754   2.529   2.640   2.184
 1919SOL    OW  5755   2.627   2.641   1.411
 1919SOL    HW1 5756   2.590   2.562   1.452
 1919SOL    HW2 5757   2.666   2.690   1.484
 1920SOL    OW  5758   2.734   2.541   1.191
 1920SOL    HW1 5759   2.693   2.545   1.277
 1920SOL    HW2 5760   2.819   2.583   1.203
 1921SOL    OW  5761   2.868   2.624   1.804
 1921SOL    HW1 5762   2.837   2.671   1.882
 1921SOL    HW2 5763   2.962   2.610   1.821
 1922SOL    OW  5764   3.233   2.761   1.583
 1922SOL    HW1 5765   3.283   2.720   1.512
 1922SOL    HW2 5766   3.286   2.837   1.608
 1923SOL    OW  5767   3.370   2.581   2.128
 1923SOL    HW1 5768   3.396   2.504   2.078
 1923SOL    HW2 5769   3.453   2.620   2.156
 1924SOL    OW  5770   3.355   2.568   0.947
 1924SOL    HW1 5771   3.302   2.638   0.911
 1924SOL    HW2 5772   3.435   2.611   0.977
 1925SOL    OW  5773   3.144   2.592   1.829
 1925SOL    HW1 5774   3.177   2.647   1.900
 1925SOL    HW2 5775   3.177   2.635   1.749
 1926SOL    OW  5776   2.405   2.751   2.254
 1926SOL    HW1 5777   2.398   2.787   2.343
 1926SOL    HW2 5778   2.393   2.827   2.197
 1927SOL    OW  5779   3.208   2.530   1.213
 1927SOL    HW1 5780   3.183   2.437   1.212
 1927SOL    HW2 5781   3.252   2.544   1.129
 1928SOL    OW  5782   2.531   2.380   2.011
 1928SOL    HW1 5783   2.573   2.448   2.063
 1928SOL    HW2 5784   2.579   2.378   1.929
 1929SOL    OW  5785   2.693   2.416   1.782
 1929SOL    HW1 5786   2.647   2.412   1.698
 1929SOL    HW2 5787   2.744   2.496   1.778
 1930SOL    OW  5788   3.284   2.365   1.783
 1930SOL    HW1 5789   3.244   2.450   1.798
 1930SOL    HW2 5790   3.355   2.359   1.847
 1931SOL    OW  5791   3.470   2.344   1.987
 1931SOL    HW1 5792   3.439   2.274   2.045
 1931SOL    HW2 5793   3.565   2.339   1.992
 1932SOL    OW  5794   3.421   2.348   1.550
 1932SOL    HW1 5795   3.354   2.359   1.617
 1932SOL    HW2 5796   3.427   2.434   1.508
 1933SOL    OW  5797   2.566   2.383   2.753
 1933SOL    HW1 5798   2.470   2.376   2.758
 1933SOL    HW2 5799   2.591   2.314   2.691
 1934SOL    OW  5800   2.777   3.452   2.378
 1934SOL    HW1 5801   2.803   3.543   2.367
 1934SOL    HW2 5802   2.859   3.403   2.369
 1935SOL    OW  5803   3.217   3.442   2.418
 1935SOL    HW1 5804   3.195   3.534   2.400
 1935SOL    HW2 5805   3.266   3.414   2.341
 1936SOL    OW  5806   2.578   3.331   3.365
 1936SOL    HW1 5807   2.547   3.412   3.324
 1936SOL    HW2 5808   2.622   3.361   3.445
 1937SOL    OW  5809   2.634   3.378   2.596
 1937SOL    HW1 5810   2.680   3.298   2.622
 1937SOL    HW2 5811   2.687   3.416   2.527
 1938SOL    OW  5812   2.818   3.361   2.966
 1938SOL    HW1 5813   2.782   3.449   2.977
 1938SOL    HW2 5814   2.775   3.308   3.033
 1939SOL    OW  5815   3.106   3.340   3.003
 1939SOL    HW1 5816   3.016   3.368   2.982
 1939SOL    HW2 5817   3.158   3.420   2.993
 1940SOL    OW  5818   3.371   3.376   2.633
 1940SOL    HW1 5819   3.385   3.464   2.668
 1940SOL    HW2 5820   3.324   3.390   2.551
 1941SOL    OW  5821   3.340   3.413   3.420
 1941SOL    HW1 5822   3.366   3.480   3.357
 1941SOL    HW2 5823   3.417   3.355   3.426
 1942SOL    OW  5824   2.363   3.175   3.425
 1942SOL    HW1 5825   2.360   3.168   3.520
 1942SOL    HW2 5826   2.445   3.222   3.407
 1943SOL    OW  5827   2.749   3.184   2.744
 1943SOL    HW1 5828   2.768   3.247   2.814
 1943SOL    HW2 5829   2.834   3.151   2.718
 1944SOL    OW  5830   2.715   3.192   3.151
 1944SOL    HW1 5831   2.660   3.239   3.214
 1944SOL    HW2 5832   2.795   3.172   3.200
 1945SOL    OW  5833   2.995   3.263   2.401
 1945SOL    HW1 5834   2.993   3.211   2.482
 1945SOL    HW2 5835   3.070   3.321   2.412
 1946SOL    OW  5836   3.177   3.225   3.246
 1946SOL    HW1 5837   3.149   3.271   3.166
 1946SOL    HW2 5838   3.223   3.292   3.296
 1947SOL    OW  5839   3.217   3.180   2.808
 1947SOL    HW1 5840   3.194   3.225   2.889
 1947SOL    HW2 5841   3.262   3.247   2.755
 1948SOL    OW  5842   2.411   3.228   2.492
 1948SOL    HW1 5843   2.334   3.279   2.517
 1948SOL    HW2 5844   2.485   3.277   2.527
 1949SOL    OW  5845   3.003   2.831   2.625
 1949SOL    HW1 5846   3.014   2.783   2.544
 1949SOL    HW2 5847   2.932   2.785   2.670
 1950SOL    OW  5848   2.927   3.151   3.360
 1950SOL    HW1 5849   2.915   3.205   3.438
 1950SOL    HW2 5850   3.011   3.180   3.324
 1951SOL    OW  5851   2.352   3.007   2.676
 1951SOL    HW1 5852   2.371   3.068   2.605
 1951SOL    HW2 5853   2.435   3.002   2.725
 1952SOL    OW  5854   2.142   2.948   3.089
 1952SOL    HW1 5855   2.225   2.948   3.138
 1952SOL    HW2 5856   2.104   3.034   3.106
 1953SOL    OW  5857   2.584   2.955   3.089
 1953SOL    HW1 5858   2.625   2.897   3.153
 1953SOL    HW2 5859   2.635   3.036   3.093
 1954SOL    OW  5860   2.775   2.731   2.753
 1954SOL    HW1 5861   2.799   2.692   2.836
 1954SOL    HW2 5862   2.716   2.803   2.776
 1955SOL    OW  5863   3.580   3.220   2.564
 1955SOL    HW1 5864   3.500   3.272   2.574
 1955SOL    HW2 5865   3.652   3.282   2.578
 1956SOL    OW  5866   3.360   2.994   3.145
 1956SOL    HW1 5867   3.313   3.072   3.175
 1956SOL    HW2 5868   3.438   2.991   3.200
 1957SOL    OW  5869   2.777   2.764   3.216
 1957SOL    HW1 5870   2.739   2.712   3.286
 1957SOL    HW2 5871   2.845   2.817   3.258
 1958SOL    OW  5872   3.215   2.756   2.776
 1958SOL    HW1 5873   3.143   2.789   2.722
 1958SOL    HW2 5874   3.275   2.831   2.783
 1959SOL    OW  5875   2.388   2.789   2.536
 1959SOL    HW1 5876   2.378   2.866   2.591
 1959SOL    HW2 5877   2.462   2.742   2.574
 1960SOL    OW  5878   2.616   2.609   3.360
 1960SOL    HW1 5879   2.539   2.657   3.391
 1960SOL    HW2 5880   2.672   2.600   3.438
 1961SOL    OW  5881   3.004   3.107   2.649
 1961SOL    HW1 5882   3.081   3.134   2.699
 1961SOL    HW2 5883   3.014   3.012   2.638
 1962SOL    OW  5884   3.368   2.964   2.858
 1962SOL    HW1 5885   3.375   2.961   2.954
 1962SOL    HW2 5886   3.314   3.041   2.840
 1963SOL    OW  5887   3.198   2.775   3.213
 1963SOL    HW1 5888   3.121   2.809   3.259
 1963SOL    HW2 5889   3.239   2.852   3.174
 1964SOL    OW  5890   2.374   2.734   3.425
 1964SOL    HW1 5891   2.369   2.822   3.388
 1964SOL    HW2 5892   2.379   2.748   3.520
 1965SOL    OW  5893   2.596   2.618   2.605
 1965SOL    HW1 5894   2.570   2.552   2.670
 1965SOL    HW2 5895   2.667   2.666   2.647
 1966SOL    OW  5896   2.760   2.519   2.390
 1966SOL    HW1 5897   2.702   2.553   2.457
 1966SOL    HW2 5898   2.835   2.579   2.389
 1967SOL    OW  5899   2.863   2.624   2.993
 1967SOL    HW1 5900   2.826   2.661   3.073
 1967SOL    HW2 5901   2.957   2.620   3.008
 1968SOL    OW  5902   3.321   2.619   2.577
 1968SOL    HW1 5903   3.265   2.663   2.642
 1968SOL    HW2 5904   3.395   2.678   2.566
 1969SOL    OW  5905   3.376   2.603   3.370
 1969SOL    HW1 5906   3.332   2.669   3.316
 1969SOL    HW2 5907   3.456   2.646   3.401
 1970SOL    OW  5908   2.982   2.677   2.403
 1970SOL    HW1 5909   3.042   2.608   2.375
 1970SOL    HW2 5910   2.969   2.731   2.325
 1971SOL    OW  5911   3.139   2.612   2.984
 1971SOL    HW1 5912   3.145   2.674   2.911
 1971SOL    HW2 5913   3.171   2.661   3.060
 1972SOL    OW  5914   2.355   2.956   3.271
 1972SOL    HW1 5915   2.433   2.964   3.216
 1972SOL    HW2 5916   2.352   3.038   3.320
 1973SOL    OW  5917   3.195   2.493   2.345
 1973SOL    HW1 5918   3.248   2.515   2.422
 1973SOL    HW2 5919   3.245   2.525   2.271
 1974SOL    OW  5920   2.572   2.374   3.244
 1974SOL    HW1 5921   2.602   2.451   3.293
 1974SOL    HW2 5922   2.632   2.369   3.170
 1975SOL    OW  5923   2.700   2.374   3.011
 1975SOL    HW1 5924   2.657   2.396   2.929
 1975SOL    HW2 5925   2.778   2.430   3.013
 1976SOL    OW  5926   3.289   2.377   2.942
 1976SOL    HW1 5927   3.245   2.462   2.946
 1976SOL    HW2 5928   3.333   2.368   3.027
 1977SOL    OW  5929   3.413   2.395   3.181
 1977SOL    HW1 5930   3.384   2.464   3.240
 1977SOL    HW2 5931   3.509   2.401   3.182
 1978SOL    OW  5932   3.464   2.427   2.733
 1978SOL    HW1 5933   3.414   2.406   2.812
 1978SOL    HW2 5934   3.434   2.514   2.708
 1979SOL    OW  5935   2.550   2.381   3.952
 1979SOL    HW1 5936   2.456   2.398   3.949
 1979SOL    HW2 5937   2.562   2.307   3.893
 1980SOL    OW  5938   2.722   3.419   3.580
 1980SOL    HW1 5939   2.749   3.510   3.566
 1980SOL    HW2 5940   2.804   3.371   3.594
 1981SOL    OW  5941   3.191   3.440   3.655
 1981SOL    HW1 5942   3.173   3.534   3.652
 1981SOL    HW2 5943   3.252   3.425   3.582
 1982SOL    OW  5944   2.240   3.568   4.463
 1982SOL    HW1 5945   2.332   3.560   4.438
 1982SOL    HW2 5946   2.223   3.493   4.520
 1983SOL    OW  5947   2.583   3.367   3.832
 1983SOL    HW1 5948   2.642   3.316   3.887
 1983SOL    HW2 5949   2.631   3.378   3.749
 1984SOL    OW  5950   2.840   3.353   4.212
 1984SOL    HW1 5951   2.789   3.434   4.219
 1984SOL    HW2 5952   2.814   3.302   4.290
 1985SOL    OW  5953   3.220   3.232   4.405
 1985SOL    HW1 5954   3.179   3.276   4.331
 1985SOL    HW2 5955   3.255   3.304   4.459
 1986SOL    OW  5956   3.113   3.376   4.203
 1986SOL    HW1 5957   3.139   3.329   4.124
 1986SOL    HW2 5958   3.017   3.372   4.203
 1987SOL    OW  5959   3.279   0.015   4.201
 1987SOL    HW1 5960   3.323   0.018   4.286
 1987SOL    HW2 5961   3.217  -0.057   4.209
 1988SOL    OW  5962   2.373   3.203   4.932
 1988SOL    HW1 5963   2.430   3.267   4.974
 1988SOL    HW2 5964   2.284   3.235   4.948
 1989SOL    OW  5965   2.745   3.195   3.996
 1989SOL    HW1 5966   2.763   3.239   4.079
 1989SOL    HW2 5967   2.691   3.120   4.019
 1990SOL    OW  5968   2.608   3.375   4.592
 1990SOL    HW1 5969   2.661   3.408   4.665
 1990SOL    HW2 5970   2.660   3.304   4.554
 1991SOL    OW  5971   2.962   3.285   3.626
 1991SOL    HW1 5972   2.957   3.218   3.695
 1991SOL    HW2 5973   3.047   3.328   3.640
 1992SOL    OW  5974   3.311   3.419   4.592
 1992SOL    HW1 5975   3.355   3.492   4.548
 1992SOL    HW2 5976   3.382   3.363   4.624
 1993SOL    OW  5977   3.159   3.191   3.985
 1993SOL    HW1 5978   3.220   3.249   3.940
 1993SOL    HW2 5979   3.214   3.125   4.026
 1994SOL    OW  5980   2.625   2.934   4.069
 1994SOL    HW1 5981   2.557   2.932   4.002
 1994SOL    HW2 5982   2.694   2.878   4.035
 1995SOL    OW  5983   2.942   3.077   3.818
 1995SOL    HW1 5984   2.877   3.106   3.882
 1995SOL    HW2 5985   3.025   3.113   3.850
 1996SOL    OW  5986   3.012   3.114   4.549
 1996SOL    HW1 5987   3.011   3.175   4.623
 1996SOL    HW2 5988   3.087   3.142   4.496
 1997SOL    OW  5989   2.170   3.003   4.011
 1997SOL    HW1 5990   2.185   3.021   4.104
 1997SOL    HW2 5991   2.255   2.976   3.977
 1998SOL    OW  5992   2.379   2.997   4.467
 1998SOL    HW1 5993   2.375   3.075   4.524
 1998SOL    HW2 5994   2.466   3.001   4.428
 1999SOL    OW  5995   2.606   2.977   4.339
 1999SOL    HW1 5996   2.662   2.908   4.375
 1999SOL    HW2 5997   2.613   2.966   4.244
 2000SOL    OW  5998   2.779   3.190   4.440
 2000SOL    HW1 5999   2.862   3.153   4.471
 2000SOL    HW2 6000   2.732   3.115   4.403
 2001SOL    OW  6001   3.349   3.026   4.055
 2001SOL    HW1 6002   3.355   3.004   4.148
 2001SOL    HW2 6003   3.438   3.013   4.022
 2002SOL    OW  6004   3.352   2.998   4.325
 2002SOL    HW1 6005   3.310   3.083   4.341
 2002SOL    HW2 6006   3.422   2.994   4.390
 2003SOL    OW  6007   2.999   2.804   4.574
 2003SOL    HW1 6008   3.001   2.895   4.602
 2003SOL    HW2 6009   2.995   2.754   4.656
 2004SOL    OW  6010   3.020   2.702   3.569
 2004SOL    HW1 6011   3.019   2.748   3.653
 2004SOL    HW2 6012   3.088   2.636   3.578
 2005SOL    OW  6013   2.417   2.940   3.881
 2005SOL    HW1 6014   2.401   3.009   3.816
 2005SOL    HW2 6015   2.393   2.859   3.836
 2006SOL    OW  6016   2.781   2.777   4.412
 2006SOL    HW1 6017   2.722   2.713   4.451
 2006SOL    HW2 6018   2.854   2.784   4.474
 2007SOL    OW  6019   2.791   2.748   3.972
 2007SOL    HW1 6020   2.821   2.710   4.055
 2007SOL    HW2 6021   2.871   2.763   3.922
 2008SOL    OW  6022   2.998   2.822   3.816
 2008SOL    HW1 6023   2.991   2.917   3.813
 2008SOL    HW2 6024   3.069   2.804   3.878
 2009SOL    OW  6025   3.217   2.757   4.412
 2009SOL    HW1 6026   3.158   2.779   4.484
 2009SOL    HW2 6027   3.258   2.840   4.388
 2010SOL    OW  6028   2.620   2.603   4.530
 2010SOL    HW1 6029   2.552   2.657   4.570
 2010SOL    HW2 6030   2.680   2.581   4.601
 2011SOL    OW  6031   2.626   2.602   3.791
 2011SOL    HW1 6032   2.600   2.517   3.826
 2011SOL    HW2 6033   2.681   2.640   3.860
 2012SOL    OW  6034   2.792   2.541   3.568
 2012SOL    HW1 6035   2.747   2.552   3.652
 2012SOL    HW2 6036   2.860   2.609   3.568
 2013SOL    OW  6037   2.857   2.608   4.209
 2013SOL    HW1 6038   2.830   2.660   4.284
 2013SOL    HW2 6039   2.952   2.614   4.208
 2014SOL    OW  6040   3.366   2.625   3.785
 2014SOL    HW1 6041   3.397   2.553   3.840
 2014SOL    HW2 6042   3.446   2.670   3.757
 2015SOL    OW  6043   3.362   2.602   4.578
 2015SOL    HW1 6044   3.311   2.654   4.515
 2015SOL    HW2 6045   3.435   2.659   4.603
 2016SOL    OW  6046   2.977   2.881   3.334
 2016SOL    HW1 6047   2.963   2.973   3.356
 2016SOL    HW2 6048   3.011   2.842   3.414
 2017SOL    OW  6049   3.227   2.775   3.974
 2017SOL    HW1 6050   3.272   2.857   3.996
 2017SOL    HW2 6051   3.281   2.736   3.905
 2018SOL    OW  6052   2.400   2.758   4.667
 2018SOL    HW1 6053   2.411   2.806   4.749
 2018SOL    HW2 6054   2.410   2.825   4.599
 2019SOL    OW  6055   3.218   2.512   3.579
 2019SOL    HW1 6056   3.267   2.553   3.650
 2019SOL    HW2 6057   3.262   2.541   3.499
 2020SOL    OW  6058   2.484   2.398   4.397
 2020SOL    HW1 6059   2.514   2.466   4.457
 2020SOL    HW2 6060   2.555   2.391   4.332
 2021SOL    OW  6061   2.674   2.393   4.194
 2021SOL    HW1 6062   2.626   2.394   4.111
 2021SOL    HW2 6063   2.722   2.476   4.195
 2022SOL    OW  6064   3.131   2.640   4.184
 2022SOL    HW1 6065   3.157   2.688   4.106
 2022SOL    HW2 6066   3.175   2.685   4.256
 2023SOL    OW  6067   3.478   2.418   4.396
 2023SOL    HW1 6068   3.464   2.479   4.469
 2023SOL    HW2 6069   3.571   2.395   4.401
 2024SOL    OW  6070   3.455   2.380   3.963
 2024SOL    HW1 6071   3.429   2.318   3.895
 2024SOL    HW2 6072   3.402   2.357   4.038
 2025SOL    OW  6073   2.515   2.403   5.162
 2025SOL    HW1 6074   2.419   2.408   5.164
 2025SOL    HW2 6075   2.534   2.314   5.135
 2026SOL    OW  6076   2.761   3.445   4.801
 2026SOL    HW1 6077   2.793   3.535   4.800
 2026SOL    HW2 6078   2.841   3.391   4.795
 2027SOL    OW  6079   3.179   3.456   4.839
 2027SOL    HW1 6080   3.230   3.458   4.758
 2027SOL    HW2 6081   3.169   3.548   4.863
 2028SOL    OW  6082   2.583   3.365   5.764
 2028SOL    HW1 6083   2.575   3.446   5.713
 2028SOL    HW2 6084   2.633   3.390   5.841
 2029SOL    OW  6085   2.597   3.363   5.031
 2029SOL    HW1 6086   2.643   3.394   4.953
 2029SOL    HW2 6087   2.579   3.443   5.081
 2030SOL    OW  6088   2.844   3.378   5.448
 2030SOL    HW1 6089   2.783   3.452   5.451
 2030SOL    HW2 6090   2.815   3.320   5.518
 2031SOL    OW  6091   3.112   3.329   5.416
 2031SOL    HW1 6092   3.022   3.361   5.406
 2031SOL    HW2 6093   3.134   3.291   5.331
 2032SOL    OW  6094   3.350   3.354   5.037
 2032SOL    HW1 6095   3.384   3.436   5.071
 2032SOL    HW2 6096   3.282   3.380   4.975
 2033SOL    OW  6097   3.455   3.605   5.628
 2033SOL    HW1 6098   3.550   3.610   5.640
 2033SOL    HW2 6099   3.429   3.527   5.677
 2034SOL    OW  6100   2.374   3.204   5.814
 2034SOL    HW1 6101   2.369   3.180   5.906
 2034SOL    HW2 6102   2.449   3.263   5.807
 2035SOL    OW  6103   2.765   3.219   5.215
 2035SOL    HW1 6104   2.772   3.272   5.294
 2035SOL    HW2 6105   2.701   3.266   5.160
 2036SOL    OW  6106   2.750   3.204   5.623
 2036SOL    HW1 6107   2.827   3.176   5.672
 2036SOL    HW2 6108   2.701   3.259   5.684
 2037SOL    OW  6109   2.995   3.274   4.768
 2037SOL    HW1 6110   2.999   3.218   4.846
 2037SOL    HW2 6111   3.060   3.342   4.784
 2038SOL    OW  6112   3.364   3.398   5.794
 2038SOL    HW1 6113   3.304   3.338   5.750
 2038SOL    HW2 6114   3.442   3.345   5.812
 2039SOL    OW  6115   3.187   3.166   5.191
 2039SOL    HW1 6116   3.243   3.099   5.232
 2039SOL    HW2 6117   3.249   3.229   5.153
 2040SOL    OW  6118   2.400   3.014   5.127
 2040SOL    HW1 6119   2.398   3.086   5.063
 2040SOL    HW2 6120   2.489   3.018   5.164
 2041SOL    OW  6121   2.945   3.108   5.046
 2041SOL    HW1 6122   2.873   3.152   5.091
 2041SOL    HW2 6123   3.020   3.117   5.104
 2042SOL    OW  6124   3.211   3.233   5.639
 2042SOL    HW1 6125   3.133   3.206   5.687
 2042SOL    HW2 6126   3.178   3.283   5.565
 2043SOL    OW  6127   2.633   2.980   5.259
 2043SOL    HW1 6128   2.685   3.059   5.246
 2043SOL    HW2 6129   2.684   2.910   5.217
 2044SOL    OW  6130   2.398   2.961   5.676
 2044SOL    HW1 6131   2.375   3.048   5.711
 2044SOL    HW2 6132   2.476   2.977   5.623
 2045SOL    OW  6133   2.647   2.953   5.545
 2045SOL    HW1 6134   2.681   3.041   5.562
 2045SOL    HW2 6135   2.636   2.950   5.450
 2046SOL    OW  6136   2.786   2.725   5.632
 2046SOL    HW1 6137   2.736   2.802   5.605
 2046SOL    HW2 6138   2.721   2.667   5.672
 2047SOL    OW  6139   3.557   2.977   5.121
 2047SOL    HW1 6140   3.540   3.045   5.057
 2047SOL    HW2 6141   3.642   3.000   5.160
 2048SOL    OW  6142   3.374   3.012   5.564
 2048SOL    HW1 6143   3.322   3.085   5.598
 2048SOL    HW2 6144   3.451   3.009   5.620
 2049SOL    OW  6145   2.980   3.116   5.763
 2049SOL    HW1 6146   2.972   3.162   5.847
 2049SOL    HW2 6147   2.963   3.024   5.784
 2050SOL    OW  6148   2.984   2.805   5.024
 2050SOL    HW1 6149   2.959   2.897   5.027
 2050SOL    HW2 6150   3.053   2.796   5.089
 2051SOL    OW  6151   2.380   2.803   4.950
 2051SOL    HW1 6152   2.390   2.884   5.000
 2051SOL    HW2 6153   2.458   2.752   4.972
 2052SOL    OW  6154   2.951   2.849   5.807
 2052SOL    HW1 6155   2.893   2.799   5.749
 2052SOL    HW2 6156   2.964   2.792   5.883
 2053SOL    OW  6157   2.770   2.732   5.177
 2053SOL    HW1 6158   2.792   2.660   5.236
 2053SOL    HW2 6159   2.853   2.757   5.137
 2054SOL    OW  6160   3.317   2.951   5.284
 2054SOL    HW1 6161   3.346   2.966   5.374
 2054SOL    HW2 6162   3.397   2.934   5.235
 2055SOL    OW  6163   3.210   2.777   5.656
 2055SOL    HW1 6164   3.132   2.804   5.705
 2055SOL    HW2 6165   3.260   2.858   5.645
 2056SOL    OW  6166   2.609   2.577   5.768
 2056SOL    HW1 6167   2.532   2.627   5.794
 2056SOL    HW2 6168   2.653   2.555   5.850
 2057SOL    OW  6169   2.603   2.632   5.008
 2057SOL    HW1 6170   2.579   2.547   5.045
 2057SOL    HW2 6171   2.669   2.667   5.069
 2058SOL    OW  6172   2.733   2.514   4.770
 2058SOL    HW1 6173   2.687   2.553   4.845
 2058SOL    HW2 6174   2.823   2.544   4.779
 2059SOL    OW  6175   2.853   2.583   5.395
 2059SOL    HW1 6176   2.834   2.641   5.469
 2059SOL    HW2 6177   2.948   2.572   5.398
 2060SOL    OW  6178   0.229   2.631   4.998
 2060SOL    HW1 6179   0.201   2.556   5.051
 2060SOL    HW2 6180   0.270   2.690   5.062
 2061SOL    OW  6181   3.415   2.583   5.794
 2061SOL    HW1 6182   3.502   2.615   5.818
 2061SOL    HW2 6183   3.367   2.661   5.768
 2062SOL    OW  6184   2.979   2.646   4.799
 2062SOL    HW1 6185   3.061   2.597   4.798
 2062SOL    HW2 6186   2.981   2.694   4.882
 2063SOL    OW  6187   3.123   2.610   5.442
 2063SOL    HW1 6188   3.155   2.662   5.515
 2063SOL    HW2 6189   3.141   2.662   5.364
 2064SOL    OW  6190   2.401   2.741   5.839
 2064SOL    HW1 6191   2.372   2.771   5.925
 2064SOL    HW2 6192   2.407   2.822   5.786
 2065SOL    OW  6193   3.155   2.743   5.215
 2065SOL    HW1 6194   3.202   2.816   5.255
 2065SOL    HW2 6195   3.221   2.701   5.159
 2066SOL    OW  6196   2.509   2.357   5.634
 2066SOL    HW1 6197   2.548   2.434   5.675
 2066SOL    HW2 6198   2.552   2.351   5.548
 2067SOL    OW  6199   2.666   2.372   5.401
 2067SOL    HW1 6200   2.611   2.390   5.325
 2067SOL    HW2 6201   2.726   2.446   5.406
 2068SOL    OW  6202   3.301   2.404   5.405
 2068SOL    HW1 6203   3.241   2.478   5.402
 2068SOL    HW2 6204   3.341   2.401   5.318
 2069SOL    OW  6205   3.446   2.367   5.634
 2069SOL    HW1 6206   3.423   2.447   5.681
 2069SOL    HW2 6207   3.404   2.376   5.548
 2070SOL    OW  6208   3.427   2.440   5.141
 2070SOL    HW1 6209   3.382   2.362   5.108
 2070SOL    HW2 6210   3.401   2.510   5.081
 2071CH4    C   6211   0.643   3.591   0.300
 2071CH4    H   6212   0.691   3.489   0.292
 2071CH4    H   6213   0.729   3.664   0.305
 2071CH4    H   6214   0.586   3.614   0.210
 2071CH4    H   6215   0.587   3.599   0.390
 2072CH4    C   6216   3.572   0.909   0.567
 2072CH4    H   6217   3.473   0.911   0.608
 2072CH4    H   6218   3.584   0.960   0.470
 2072CH4    H   6219   3.647   0.949   0.640
 2072CH4    H   6220   3.590   0.801   0.552
 2073CH4    C   6221   0.292   0.557   5.967
 2073CH4    H   6222   0.254   0.557   6.073
 2073CH4    H   6223   0.269   0.462   5.922
 2073CH4    H   6224   0.255   0.636   5.910
 2073CH4    H   6225   0.405   0.555   5.976
 2074CH4    C   6226   0.600   0.583   0.593
 2074CH4    H   6227   0.506   0.547   0.644
 2074CH4    H   6228   0.618   0.535   0.500
 2074CH4    H   6229   0.580   0.690   0.585
 2074CH4    H   6230   0.680   0.572   0.663
 2075CH4    C   6231   0.884   0.569   5.998
 2075CH4    H   6232   0.791   0.512   6.027
 2075CH4    H   6233   0.888   0.662   6.064
 2075CH4    H   6234   0.974   0.506   6.012
 2075CH4    H   6235   0.882   0.612   5.890
 2076CH4    C   6236   0.042   0.306   0.649
 2076CH4    H   6237   0.108   0.244   0.708
 2076CH4    H   6238  -0.060   0.288   0.684
 2076CH4    H   6239   0.068   0.407   0.671
 2076CH4    H   6240   0.048   0.297   0.542
 2077CH4    C   6241   3.577   3.573   0.026
 2077CH4    H   6242   3.667   3.532   0.086
 2077CH4    H   6243   3.491   3.565   0.097
 2077CH4    H   6244   3.578   3.679   0.006
 2077CH4    H   6245   3.570   3.523  -0.072
 2078CH4    C   6246   0.567   3.503   0.856
 2078CH4    H   6247   0.482   3.456   0.898
 2078CH4    H   6248   0.652   3.434   0.854
 2078CH4    H   6249   0.558   3.532   0.748
 2078CH4    H   6250   0.603   3.586   0.918
 2079CH4    C   6251   0.626   3.540   1.467
 2079CH4    H   6252   0.602   3.538   1.360
 2079CH4    H   6253   0.696   3.460   1.485
 2079CH4    H   6254   0.662   3.638   1.502
 2079CH4    H   6255   0.534   3.518   1.522
 2080CH4    C   6256   0.010   0.909   1.772
 2080CH4    H   6257  -0.043   0.820   1.734
 2080CH4    H   6258  -0.048   0.950   1.854
 2080CH4    H   6259   0.110   0.884   1.812
 2080CH4    H   6260   0.016   0.989   1.692
 2081CH4    C   6261   0.289   0.709   1.177
 2081CH4    H   6262   0.302   0.762   1.080
 2081CH4    H   6263   0.196   0.647   1.191
 2081CH4    H   6264   0.380   0.652   1.184
 2081CH4    H   6265   0.308   0.795   1.250
 2082CH4    C   6266   0.579   0.586   1.778
 2082CH4    H   6267   0.593   0.533   1.682
 2082CH4    H   6268   0.636   0.539   1.854
 2082CH4    H   6269   0.608   0.694   1.777
 2082CH4    H   6270   0.480   0.559   1.811
 2083CH4    C   6271   0.882   0.548   1.170
 2083CH4    H   6272   0.878   0.487   1.081
 2083CH4    H   6273   0.964   0.619   1.173
 2083CH4    H   6274   0.788   0.610   1.181
 2083CH4    H   6275   0.887   0.491   1.260
 2084CH4    C   6276   3.595   0.231   1.855
 2084CH4    H   6277   3.638   0.332   1.881
 2084CH4    H   6278   3.662   0.157   1.807
 2084CH4    H   6279   3.575   0.186   1.951
 2084CH4    H   6280   3.504   0.238   1.791
 2085CH4    C   6281   0.010   3.595   1.223
 2085CH4    H   6282   0.089   3.615   1.301
 2085CH4    H   6283  -0.090   3.575   1.262
 2085CH4    H   6284  -0.016   3.688   1.160
 2085CH4    H   6285   0.043   3.521   1.151
 2086CH4    C   6286   0.587   0.030   2.103
 2086CH4    H   6287   0.672   0.019   2.046
 2086CH4    H   6288   0.588  -0.055   2.175
 2086CH4    H   6289   0.575   0.128   2.151
 2086CH4    H   6290   0.497   0.007   2.041
 2087CH4    C   6291   0.531   3.562   2.696
 2087CH4    H   6292   0.550   3.553   2.584
 2087CH4    H   6293   0.443   3.502   2.740
 2087CH4    H   6294   0.618   3.519   2.752
 2087CH4    H   6295   0.517   3.674   2.718
 2088CH4    C   6296   0.081   0.898   2.965
 2088CH4    H   6297   0.020   0.843   3.035
 2088CH4    H   6298   0.045   0.998   2.966
 2088CH4    H   6299   0.189   0.888   2.986
 2088CH4    H   6300   0.062   0.859   2.867
 2089CH4    C   6301   0.306   0.610   2.436
 2089CH4    H   6302   0.373   0.683   2.384
 2089CH4    H   6303   0.248   0.657   2.518
 2089CH4    H   6304   0.237   0.567   2.370
 2089CH4    H   6305   0.357   0.524   2.482
 2090CH4    C   6306   0.638   0.546   3.006
 2090CH4    H   6307   0.683   0.601   2.921
 2090CH4    H   6308   0.620   0.610   3.093
 2090CH4    H   6309   0.544   0.500   2.961
 2090CH4    H   6310   0.700   0.461   3.028
 2091CH4    C   6311   0.933   0.520   2.451
 2091CH4    H   6312   0.964   0.504   2.557
 2091CH4    H   6313   0.873   0.609   2.435
 2091CH4    H   6314   1.012   0.520   2.379
 2091CH4    H   6315   0.866   0.437   2.420
 2092CH4    C   6316   0.015   0.248   2.937
 2092CH4    H   6317   0.033   0.324   3.012
 2092CH4    H   6318  -0.008   0.284   2.837
 2092CH4    H   6319   0.108   0.191   2.940
 2092CH4    H   6320  -0.072   0.191   2.976
 2093CH4    C   6321   3.587   3.579   2.392
 2093CH4    H   6322   3.681   3.556   2.343
 2093CH4    H   6323   3.507   3.552   2.329
 2093CH4    H   6324   3.594   3.516   2.481
 2093CH4    H   6325   3.580   3.689   2.416
 2094CH4    C   6326   0.647   3.546   3.320
 2094CH4    H   6327   0.722   3.481   3.349
 2094CH4    H   6328   0.554   3.515   3.365
 2094CH4    H   6329   0.669   3.647   3.348
 2094CH4    H   6330   0.635   3.543   3.213
 2095CH4    C   6331   0.481   3.586   3.887
 2095CH4    H   6332   0.412   3.508   3.855
 2095CH4    H   6333   0.552   3.538   3.959
 2095CH4    H   6334   0.535   3.623   3.800
 2095CH4    H   6335   0.427   3.669   3.937
 2096CH4    C   6336   0.014   0.844   4.113
 2096CH4    H   6337  -0.080   0.824   4.165
 2096CH4    H   6338   0.004   0.821   4.003
 2096CH4    H   6339   0.034   0.949   4.133
 2096CH4    H   6340   0.078   0.770   4.159
 2097CH4    C   6341   0.302   0.550   3.597
 2097CH4    H   6342   0.297   0.446   3.638
 2097CH4    H   6343   0.362   0.548   3.503
 2097CH4    H   6344   0.209   0.601   3.558
 2097CH4    H   6345   0.362   0.615   3.662
 2098CH4    C   6346   0.552   0.579   4.184
 2098CH4    H   6347   0.573   0.552   4.287
 2098CH4    H   6348   0.492   0.502   4.136
 2098CH4    H   6349   0.497   0.676   4.188
 2098CH4    H   6350   0.645   0.593   4.132
 2099CH4    C   6351   0.923   0.530   3.619
 2099CH4    H   6352   1.021   0.534   3.674
 2099CH4    H   6353   0.942   0.533   3.512
 2099CH4    H   6354   0.882   0.424   3.639
 2099CH4    H   6355   0.852   0.609   3.660
 2100CH4    C   6356   0.004   0.281   4.251
 2100CH4    H   6357  -0.070   0.357   4.289
 2100CH4    H   6358   0.096   0.337   4.241
 2100CH4    H   6359   0.009   0.194   4.318
 2100CH4    H   6360  -0.023   0.252   4.151
 2101CH4    C   6361   3.555   3.558   3.603
 2101CH4    H   6362   3.511   3.600   3.513
 2101CH4    H   6363   3.511   3.459   3.621
 2101CH4    H   6364   3.661   3.542   3.580
 2101CH4    H   6365   3.549   3.631   3.686
 2102CH4    C   6366   0.630   0.021   4.509
 2102CH4    H   6367   0.736   0.004   4.528
 2102CH4    H   6368   0.600   0.095   4.588
 2102CH4    H   6369   0.603   0.055   4.402
 2102CH4    H   6370   0.579  -0.068   4.526
 2103CH4    C   6371   0.619   3.558   5.101
 2103CH4    H   6372   0.604   3.650   5.042
 2103CH4    H   6373   0.530   3.496   5.090
 2103CH4    H   6374   0.709   3.506   5.060
 2103CH4    H   6375   0.641   3.587   5.209
 2104CH4    C   6376   3.534   0.901   5.370
 2104CH4    H   6377   3.551   0.865   5.476
 2104CH4    H   6378   3.474   0.989   5.383
 2104CH4    H   6379   3.629   0.928   5.323
 2104CH4    H   6380   3.481   0.829   5.307
 2105CH4    C   6381   0.244   0.601   4.826
 2105CH4    H   6382   0.324   0.670   4.836
 2105CH4    H   6383   0.288   0.501   4.816
 2105CH4    H   6384   0.192   0.602   4.922
 2105CH4    H   6385   0.175   0.633   4.748
 2106CH4    C   6386   0.560   0.599   5.367
 2106CH4    H   6387   0.639   0.673   5.373
 2106CH4    H   6388   0.526   0.574   5.468
 2106CH4    H   6389   0.468   0.635   5.317
 2106CH4    H   6390   0.602   0.508   5.315
 2107CH4    C   6391   0.890   0.574   4.766
 2107CH4    H   6392   0.811   0.559   4.849
 2107CH4    H   6393   0.987   0.539   4.803
 2107CH4    H   6394   0.868   0.515   4.674
 2107CH4    H   6395   0.902   0.680   4.742
 2108CH4    C   6396   3.562   0.275   5.289
 2108CH4    H   6397   3.649   0.338   5.300
 2108CH4    H   6398   3.563   0.248   5.181
 2108CH4    H   6399   3.571   0.182   5.346
 2108CH4    H   6400   3.469   0.336   5.309
 2109CH4    C   6401   3.593   3.600   4.824
 2109CH4    H   6402   3.683   3.650   4.801
 2109CH4    H   6403   3.566   3.615   4.932
 2109CH4    H   6404   3.497   3.636   4.783
 2109CH4    H   6405   3.620   3.492   4.808
 2110CH4    C   6406   0.637   0.017   5.722
 2110CH4    H   6407   0.532   0.044   5.728
 2110CH4    H   6408   0.661   0.007   5.616
 2110CH4    H   6409   0.699   0.093   5.772
 2110CH4    H   6410   0.663  -0.082   5.766
 2111CH4    C   6411   0.579   1.165   0.254
 2111CH4    H   6412   0.498   1.153   0.320
 2111CH4    H   6413   0.597   1.274   0.238
 2111CH4    H   6414   0.660   1.109   0.303
 2111CH4    H   6415   0.577   1.125   0.155
 2112CH4    C   6416   0.033   2.079   0.569
 2112CH4    H   6417   0.139   2.061   0.585
 2112CH4    H   6418   0.019   2.069   0.459
 2112CH4    H   6419  -0.026   2.011   0.630
 2112CH4    H   6420   0.014   2.180   0.609
 2113CH4    C   6421   0.277   1.748   0.016
 2113CH4    H   6422   0.185   1.762  -0.044
 2113CH4    H   6423   0.376   1.800  -0.004
 2113CH4    H   6424   0.253   1.778   0.118
 2113CH4    H   6425   0.310   1.643   0.023
 2114CH4    C   6426   0.611   1.749   0.592
 2114CH4    H   6427   0.528   1.799   0.559
 2114CH4    H   6428   0.583   1.674   0.666
 2114CH4    H   6429   0.661   1.709   0.505
 2114CH4    H   6430   0.681   1.818   0.642
 2115CH4    C   6431   0.877   1.801   5.974
 2115CH4    H   6432   0.837   1.796   5.870
 2115CH4    H   6433   0.837   1.886   6.035
 2115CH4    H   6434   0.859   1.702   6.016
 2115CH4    H   6435   0.983   1.804   5.981
 2116CH4    C   6436   0.023   1.429   0.571
 2116CH4    H   6437   0.034   1.322   0.580
 2116CH4    H   6438  -0.082   1.457   0.595
 2116CH4    H   6439   0.082   1.487   0.639
 2116CH4    H   6440   0.066   1.463   0.469
 2117CH4    C   6441   3.590   1.175   0.006
 2117CH4    H   6442   3.656   1.091   0.030
 2117CH4    H   6443   3.557   1.160  -0.098
 2117CH4    H   6444   3.509   1.189   0.081
 2117CH4    H   6445   3.648   1.273   0.007
 2118CH4    C   6446   0.535   1.242   0.916
 2118CH4    H   6447   0.538   1.242   0.803
 2118CH4    H   6448   0.444   1.194   0.959
 2118CH4    H   6449   0.627   1.203   0.960
 2118CH4    H   6450   0.545   1.347   0.946
 2119CH4    C   6451   0.517   1.210   1.478
 2119CH4    H   6452   0.504   1.107   1.447
 2119CH4    H   6453   0.592   1.266   1.413
 2119CH4    H   6454   0.422   1.268   1.458
 2119CH4    H   6455   0.538   1.216   1.589
 2120CH4    C   6456   3.509   2.067   1.809
 2120CH4    H   6457   3.531   1.988   1.737
 2120CH4    H   6458   3.433   2.134   1.773
 2120CH4    H   6459   3.481   2.032   1.907
 2120CH4    H   6460   3.596   2.128   1.820
 2121CH4    C   6461   0.310   1.833   1.223
 2121CH4    H   6462   0.300   1.724   1.210
 2121CH4    H   6463   0.293   1.863   1.327
 2121CH4    H   6464   0.412   1.849   1.193
 2121CH4    H   6465   0.240   1.881   1.157
 2122CH4    C   6466   0.578   1.803   1.794
 2122CH4    H   6467   0.541   1.752   1.705
 2122CH4    H   6468   0.582   1.732   1.878
 2122CH4    H   6469   0.683   1.843   1.780
 2122CH4    H   6470   0.498   1.878   1.822
 2123CH4    C   6471   0.881   1.793   1.122
 2123CH4    H   6472   0.848   1.819   1.020
 2123CH4    H   6473   0.796   1.741   1.178
 2123CH4    H   6474   0.971   1.735   1.116
 2123CH4    H   6475   0.891   1.887   1.163
 2124CH4    C   6476   3.542   1.521   1.792
 2124CH4    H   6477   3.573   1.623   1.835
 2124CH4    H   6478   3.515   1.522   1.683
 2124CH4    H   6479   3.627   1.453   1.817
 2124CH4    H   6480   3.455   1.494   1.847
 2125CH4    C   6481   3.562   1.190   1.255
 2125CH4    H   6482   3.508   1.266   1.191
 2125CH4    H   6483   3.544   1.087   1.213
 2125CH4    H   6484   3.664   1.216   1.238
 2125CH4    H   6485   3.544   1.198   1.361
 2126CH4    C   6486   0.592   1.161   2.058
 2126CH4    H   6487   0.634   1.258   2.095
 2126CH4    H   6488   0.680   1.123   2.004
 2126CH4    H   6489   0.566   1.100   2.142
 2126CH4    H   6490   0.512   1.187   1.987
 2127CH4    C   6491   0.632   1.173   2.681
 2127CH4    H   6492   0.647   1.153   2.789
 2127CH4    H   6493   0.542   1.228   2.673
 2127CH4    H   6494   0.713   1.224   2.629
 2127CH4    H   6495   0.611   1.072   2.629
 2128CH4    C   6496   0.022   2.031   3.030
 2128CH4    H   6497   0.010   2.065   2.929
 2128CH4    H   6498  -0.080   2.034   3.071
 2128CH4    H   6499   0.088   1.947   3.042
 2128CH4    H   6500   0.076   2.118   3.069
 2129CH4    C   6501   0.285   1.788   2.334
 2129CH4    H   6502   0.213   1.873   2.342
 2129CH4    H   6503   0.390   1.819   2.339
 2129CH4    H   6504   0.267   1.730   2.422
 2129CH4    H   6505   0.263   1.724   2.248
 2130CH4    C   6506   0.603   1.771   2.979
 2130CH4    H   6507   0.542   1.843   3.036
 2130CH4    H   6508   0.614   1.678   3.032
 2130CH4    H   6509   0.566   1.742   2.877
 2130CH4    H   6510   0.700   1.816   2.967
 2131CH4    C   6511   0.893   1.767   2.436
 2131CH4    H   6512   0.811   1.795   2.374
 2131CH4    H   6513   0.904   1.836   2.522
 2131CH4    H   6514   0.877   1.670   2.495
 2131CH4    H   6515   0.985   1.757   2.375
 2132CH4    C   6516   3.577   1.443   2.952
 2132CH4    H   6517   3.560   1.542   2.985
 2132CH4    H   6518   3.650   1.445   2.867
 2132CH4    H   6519   3.628   1.370   3.014
 2132CH4    H   6520   3.484   1.401   2.920
 2133CH4    C   6521   0.013   1.186   2.385
 2133CH4    H   6522  -0.010   1.181   2.495
 2133CH4    H   6523   0.126   1.204   2.375
 2133CH4    H   6524  -0.014   1.087   2.339
 2133CH4    H   6525  -0.037   1.266   2.333
 2134CH4    C   6526   0.547   1.138   3.238
 2134CH4    H   6527   0.477   1.104   3.160
 2134CH4    H   6528   0.579   1.060   3.309
 2134CH4    H   6529   0.630   1.178   3.175
 2134CH4    H   6530   0.502   1.222   3.288
 2135CH4    C   6531   0.605   1.221   3.885
 2135CH4    H   6532   0.678   1.212   3.803
 2135CH4    H   6533   0.655   1.194   3.977
 2135CH4    H   6534   0.558   1.316   3.898
 2135CH4    H   6535   0.523   1.143   3.876
 2136CH4    C   6536   0.009   2.118   4.115
 2136CH4    H   6537   0.034   2.013   4.159
 2136CH4    H   6538  -0.073   2.101   4.041
 2136CH4    H   6539  -0.025   2.196   4.190
 2136CH4    H   6540   0.097   2.159   4.058
 2137CH4    C   6541   0.293   1.854   3.572
 2137CH4    H   6542   0.326   1.792   3.489
 2137CH4    H   6543   0.186   1.835   3.580
 2137CH4    H   6544   0.336   1.833   3.668
 2137CH4    H   6545   0.306   1.962   3.551
 2138CH4    C   6546   0.580   1.790   4.185
 2138CH4    H   6547   0.549   1.760   4.086
 2138CH4    H   6548   0.650   1.725   4.225
 2138CH4    H   6549   0.622   1.892   4.185
 2138CH4    H   6550   0.497   1.796   4.254
 2139CH4    C   6551   0.906   1.843   3.587
 2139CH4    H   6552   0.799   1.869   3.600
 2139CH4    H   6553   0.935   1.782   3.672
 2139CH4    H   6554   0.931   1.805   3.486
 2139CH4    H   6555   0.957   1.942   3.591
 2140CH4    C   6556   3.581   1.437   4.190
 2140CH4    H   6557   3.498   1.436   4.118
 2140CH4    H   6558   3.632   1.344   4.182
 2140CH4    H   6559   3.652   1.524   4.165
 2140CH4    H   6560   3.548   1.448   4.295
 2141CH4    C   6561   3.577   1.156   3.569
 2141CH4    H   6562   3.605   1.138   3.463
 2141CH4    H   6563   3.493   1.097   3.598
 2141CH4    H   6564   3.661   1.133   3.640
 2141CH4    H   6565   3.546   1.266   3.584
 2142CH4    C   6566   0.548   1.167   4.486
 2142CH4    H   6567   0.609   1.163   4.570
 2142CH4    H   6568   0.454   1.218   4.516
 2142CH4    H   6569   0.609   1.216   4.407
 2142CH4    H   6570   0.512   1.072   4.467
 2143CH4    C   6571   0.501   1.126   5.079
 2143CH4    H   6572   0.503   1.067   4.986
 2143CH4    H   6573   0.427   1.095   5.145
 2143CH4    H   6574   0.598   1.131   5.129
 2143CH4    H   6575   0.481   1.233   5.052
 2144CH4    C   6576   3.577   2.030   5.391
 2144CH4    H   6577   3.481   2.063   5.428
 2144CH4    H   6578   3.609   2.098   5.311
 2144CH4    H   6579   3.643   2.023   5.477
 2144CH4    H   6580   3.572   1.936   5.344
 2145CH4    C   6581   0.321   1.760   4.827
 2145CH4    H   6582   0.306   1.788   4.931
 2145CH4    H   6583   0.256   1.825   4.766
 2145CH4    H   6584   0.421   1.777   4.796
 2145CH4    H   6585   0.286   1.661   4.804
 2146CH4    C   6586   0.578   1.780   5.412
 2146CH4    H   6587   0.523   1.709   5.474
 2146CH4    H   6588   0.508   1.867   5.417
 2146CH4    H   6589   0.676   1.797   5.447
 2146CH4    H   6590   0.587   1.752   5.307
 2147CH4    C   6591   0.889   1.728   4.753
 2147CH4    H   6592   0.781   1.743   4.752
 2147CH4    H   6593   0.927   1.660   4.823
 2147CH4    H   6594   0.911   1.696   4.649
 2147CH4    H   6595   0.929   1.824   4.785
 2148CH4    C   6596   3.569   1.480   5.411
 2148CH4    H   6597   3.590   1.541   5.320
 2148CH4    H   6598   3.571   1.371   5.384
 2148CH4    H   6599   3.631   1.504   5.495
 2148CH4    H   6600   3.467   1.505   5.432
 2149CH4    C   6601   3.589   1.179   4.789
 2149CH4    H   6602   3.665   1.253   4.780
 2149CH4    H   6603   3.592   1.120   4.698
 2149CH4    H   6604   3.622   1.111   4.873
 2149CH4    H   6605   3.495   1.221   4.811
 2150CH4    C   6606   0.547   1.142   5.690
 2150CH4    H   6607   0.620   1.128   5.763
 2150CH4    H   6608   0.529   1.054   5.627
 2150CH4    H   6609   0.452   1.172   5.722
 2150CH4    H   6610   0.570   1.227   5.625
 2151CH4    C   6611   0.617   2.383   0.319
 2151CH4    H   6612   0.547   2.405   0.407
 2151CH4    H   6613   0.562   2.380   0.224
 2151CH4    H   6614   0.694   2.460   0.311
 2151CH4    H   6615   0.666   2.284   0.336
 2152CH4    C   6616   3.540   3.278   0.584
 2152CH4    H   6617   3.520   3.322   0.681
 2152CH4    H   6618   3.472   3.193   0.582
 2152CH4    H   6619   3.528   3.350   0.501
 2152CH4    H   6620   3.643   3.242   0.583
 2153CH4    C   6621   0.252   2.992   0.036
 2153CH4    H   6622   0.163   3.039  -0.012
 2153CH4    H   6623   0.289   3.063   0.115
 2153CH4    H   6624   0.224   2.894   0.088
 2153CH4    H   6625   0.327   2.967  -0.041
 2154CH4    C   6626   0.575   2.978   0.573
 2154CH4    H   6627   0.571   2.950   0.680
 2154CH4    H   6628   0.621   2.896   0.523
 2154CH4    H   6629   0.470   2.975   0.543
 2154CH4    H   6630   0.622   3.080   0.560
 2155CH4    C   6631   0.874   3.069   5.988
 2155CH4    H   6632   0.772   3.059   5.979
 2155CH4    H   6633   0.889   3.170   6.033
 2155CH4    H   6634   0.909   2.984   6.047
 2155CH4    H   6635   0.918   3.072   5.886
 2156CH4    C   6636   0.033   2.663   0.626
 2156CH4    H   6637   0.065   2.597   0.705
 2156CH4    H   6638   0.073   2.766   0.654
 2156CH4    H   6639   0.065   2.623   0.526
 2156CH4    H   6640  -0.075   2.664   0.618
 2157CH4    C   6641   3.589   2.375   0.020
 2157CH4    H   6642   3.552   2.284   0.069
 2157CH4    H   6643   3.550   2.372  -0.085
 2157CH4    H   6644   3.544   2.457   0.069
 2157CH4    H   6645   3.701   2.374   0.010
 2158CH4    C   6646   0.647   2.356   0.920
 2158CH4    H   6647   0.642   2.289   1.011
 2158CH4    H   6648   0.637   2.458   0.957
 2158CH4    H   6649   0.743   2.356   0.862
 2158CH4    H   6650   0.562   2.332   0.850
 2159CH4    C   6651   0.627   2.335   1.512
 2159CH4    H   6652   0.652   2.354   1.613
 2159CH4    H   6653   0.663   2.416   1.438
 2159CH4    H   6654   0.684   2.245   1.479
 2159CH4    H   6655   0.516   2.314   1.500
 2160CH4    C   6656   3.601   3.282   1.806
 2160CH4    H   6657   3.530   3.366   1.796
 2160CH4    H   6658   3.551   3.194   1.845
 2160CH4    H   6659   3.666   3.272   1.714
 2160CH4    H   6660   3.660   3.301   1.900
 2161CH4    C   6661   0.319   2.886   1.195
 2161CH4    H   6662   0.342   2.794   1.250
 2161CH4    H   6663   0.415   2.934   1.153
 2161CH4    H   6664   0.245   2.866   1.110
 2161CH4    H   6665   0.273   2.954   1.269
 2162CH4    C   6666   0.568   2.989   1.808
 2162CH4    H   6667   0.594   3.049   1.891
 2162CH4    H   6668   0.643   3.001   1.726
 2162CH4    H   6669   0.582   2.887   1.847
 2162CH4    H   6670   0.462   2.998   1.780
 2163CH4    C   6671   0.845   3.009   1.214
 2163CH4    H   6672   0.803   2.906   1.218
 2163CH4    H   6673   0.948   3.016   1.255
 2163CH4    H   6674   0.848   3.053   1.116
 2163CH4    H   6675   0.776   3.062   1.281
 2164CH4    C   6676   3.529   2.662   1.804
 2164CH4    H   6677   3.595   2.591   1.764
 2164CH4    H   6678   3.591   2.738   1.852
 2164CH4    H   6679   3.468   2.704   1.724
 2164CH4    H   6680   3.469   2.619   1.888
 2165CH4    C   6681   0.011   2.357   1.167
 2165CH4    H   6682  -0.065   2.393   1.095
 2165CH4    H   6683  -0.003   2.406   1.265
 2165CH4    H   6684  -0.003   2.246   1.185
 2165CH4    H   6685   0.121   2.358   1.135
 2166CH4    C   6686   0.547   2.333   2.093
 2166CH4    H   6687   0.540   2.423   2.152
 2166CH4    H   6688   0.477   2.252   2.121
 2166CH4    H   6689   0.529   2.372   1.992
 2166CH4    H   6690   0.646   2.295   2.092
 2167CH4    C   6691   0.588   2.422   2.670
 2167CH4    H   6692   0.567   2.512   2.724
 2167CH4    H   6693   0.512   2.403   2.590
 2167CH4    H   6694   0.693   2.419   2.639
 2167CH4    H   6695   0.576   2.337   2.744
 2168CH4    C   6696   3.540   3.262   3.060
 2168CH4    H   6697   3.511   3.223   2.963
 2168CH4    H   6698   3.598   3.360   3.047
 2168CH4    H   6699   3.441   3.296   3.100
 2168CH4    H   6700   3.579   3.194   3.131
 2169CH4    C   6701   0.308   3.059   2.407
 2169CH4    H   6702   0.351   3.127   2.338
 2169CH4    H   6703   0.386   3.020   2.474
 2169CH4    H   6704   0.245   3.122   2.469
 2169CH4    H   6705   0.257   2.976   2.350
 2170CH4    C   6706   0.611   2.993   2.982
 2170CH4    H   6707   0.589   2.937   2.896
 2170CH4    H   6708   0.697   2.961   3.041
 2170CH4    H   6709   0.643   3.099   2.953
 2170CH4    H   6710   0.523   3.001   3.045
 2171CH4    C   6711   0.907   3.037   2.384
 2171CH4    H   6712   0.919   3.135   2.344
 2171CH4    H   6713   0.894   3.042   2.492
 2171CH4    H   6714   0.817   2.983   2.339
 2171CH4    H   6715   1.006   2.987   2.372
 2172CH4    C   6716   3.578   2.690   2.993
 2172CH4    H   6717   3.505   2.622   3.022
 2172CH4    H   6718   3.567   2.718   2.891
 2172CH4    H   6719   3.569   2.777   3.063
 2172CH4    H   6720   3.672   2.637   3.012
 2173CH4    C   6721   3.563   2.388   2.370
 2173CH4    H   6722   3.599   2.417   2.275
 2173CH4    H   6723   3.581   2.284   2.380
 2173CH4    H   6724   3.612   2.447   2.448
 2173CH4    H   6725   3.450   2.388   2.378
 2174CH4    C   6726   0.687   2.421   3.287
 2174CH4    H   6727   0.636   2.330   3.336
 2174CH4    H   6728   0.797   2.404   3.267
 2174CH4    H   6729   0.639   2.447   3.191
 2174CH4    H   6730   0.672   2.512   3.351
 2175CH4    C   6731   0.575   2.354   3.859
 2175CH4    H   6732   0.622   2.402   3.777
 2175CH4    H   6733   0.473   2.388   3.875
 2175CH4    H   6734   0.575   2.248   3.839
 2175CH4    H   6735   0.635   2.372   3.954
 2176CH4    C   6736   3.581   3.280   4.214
 2176CH4    H   6737   3.547   3.376   4.176
 2176CH4    H   6738   3.621   3.207   4.147
 2176CH4    H   6739   3.648   3.295   4.297
 2176CH4    H   6740   3.485   3.247   4.252
 2177CH4    C   6741   0.322   3.012   3.613
 2177CH4    H   6742   0.286   3.102   3.561
 2177CH4    H   6743   0.296   2.917   3.562
 2177CH4    H   6744   0.425   3.015   3.640
 2177CH4    H   6745   0.263   3.002   3.705
 2178CH4    C   6746   0.547   2.994   4.230
 2178CH4    H   6747   0.641   2.954   4.183
 2178CH4    H   6748   0.501   3.084   4.186
 2178CH4    H   6749   0.474   2.917   4.231
 2178CH4    H   6750   0.579   3.017   4.330
 2179CH4    C   6751   0.819   2.919   3.578
 2179CH4    H   6752   0.739   2.964   3.630
 2179CH4    H   6753   0.807   2.808   3.576
 2179CH4    H   6754   0.823   2.954   3.476
 2179CH4    H   6755   0.905   2.952   3.635
 2180CH4    C   6756   3.543   2.727   4.121
 2180CH4    H   6757   3.652   2.704   4.143
 2180CH4    H   6758   3.484   2.654   4.176
 2180CH4    H   6759   3.521   2.831   4.156
 2180CH4    H   6760   3.522   2.717   4.009
 2181CH4    C   6761   0.005   2.410   3.625
 2181CH4    H   6762  -0.005   2.327   3.556
 2181CH4    H   6763   0.108   2.407   3.656
 2181CH4    H   6764  -0.018   2.507   3.571
 2181CH4    H   6765  -0.067   2.382   3.703
 2182CH4    C   6766   0.631   2.424   4.528
 2182CH4    H   6767   0.603   2.325   4.500
 2182CH4    H   6768   0.676   2.415   4.629
 2182CH4    H   6769   0.712   2.457   4.463
 2182CH4    H   6770   0.544   2.495   4.520
 2183CH4    C   6771   0.564   2.371   5.054
 2183CH4    H   6772   0.511   2.445   4.993
 2183CH4    H   6773   0.657   2.417   5.086
 2183CH4    H   6774   0.513   2.339   5.147
 2183CH4    H   6775   0.586   2.288   4.984
 2184CH4    C   6776   3.596   3.275   5.406
 2184CH4    H   6777   3.528   3.202   5.446
 2184CH4    H   6778   3.699   3.236   5.390
 2184CH4    H   6779   3.551   3.295   5.302
 2184CH4    H   6780   3.601   3.356   5.475
 2185CH4    C   6781   0.286   2.977   4.845
 2185CH4    H   6782   0.358   3.052   4.797
 2185CH4    H   6783   0.356   2.887   4.868
 2185CH4    H   6784   0.244   3.024   4.938
 2185CH4    H   6785   0.209   2.946   4.773
 2186CH4    C   6786   0.581   3.037   5.440
 2186CH4    H   6787   0.681   3.075   5.425
 2186CH4    H   6788   0.505   3.071   5.365
 2186CH4    H   6789   0.594   2.927   5.430
 2186CH4    H   6790   0.559   3.063   5.542
 2187CH4    C   6791   0.891   2.923   4.772
 2187CH4    H   6792   0.902   3.027   4.800
 2187CH4    H   6793   0.809   2.901   4.700
 2187CH4    H   6794   0.988   2.883   4.732
 2187CH4    H   6795   0.869   2.865   4.856
 2188CH4    C   6796   0.032   2.738   5.381
 2188CH4    H   6797   0.083   2.652   5.379
 2188CH4    H   6798   0.085   2.814   5.319
 2188CH4    H   6799  -0.068   2.715   5.341
 2188CH4    H   6800   0.023   2.777   5.487
 2189CH4    C   6801   3.576   2.432   4.795
 2189CH4    H   6802   3.645   2.442   4.883
 2189CH4    H   6803   3.634   2.435   4.700
 2189CH4    H   6804   3.519   2.337   4.808
 2189CH4    H   6805   3.496   2.511   4.792
 2190CH4    C   6806   0.576   2.400   5.702
 2190CH4    H   6807   0.552   2.486   5.772
 2190CH4    H   6808   0.639   2.314   5.734
 2190CH4    H   6809   0.477   2.357   5.677
 2190CH4    H   6810   0.603   2.446   5.603
 2191CH4    C   6811   1.822   3.507   0.253
 2191CH4    H   6812   1.719   3.558   0.250
 2191CH4    H   6813   1.887   3.588   0.264
 2191CH4    H   6814   1.826   3.435   0.336
 2191CH4    H   6815   1.846   3.462   0.155
 2192CH4    C   6816   1.224   0.885   0.626
 2192CH4    H   6817   1.320   0.894   0.684
 2192CH4    H   6818   1.239   0.871   0.520
 2192CH4    H   6819   1.167   0.806   0.680
 2192CH4    H   6820   1.171   0.975   0.651
 2193CH4    C   6821   1.472   0.519   5.993
 2193CH4    H   6822   1.461   0.424   5.941
 2193CH4    H   6823   1.425   0.604   5.935
 2193CH4    H   6824   1.405   0.504   6.076
 2193CH4    H   6825   1.573   0.544   6.040
 2194CH4    C   6826   1.785   0.578   0.589
 2194CH4    H   6827   1.784   0.595   0.693
 2194CH4    H   6828   1.740   0.667   0.542
 2194CH4    H   6829   1.886   0.561   0.556
 2194CH4    H   6830   1.734   0.488   0.563
 2195CH4    C   6831   2.063   0.555   5.995
 2195CH4    H   6832   2.042   0.544   6.105
 2195CH4    H   6833   2.006   0.640   5.967
 2195CH4    H   6834   2.173   0.567   5.984
 2195CH4    H   6835   2.028   0.470   5.935
 2196CH4    C   6836   1.186   0.320   0.602
 2196CH4    H   6837   1.096   0.280   0.549
 2196CH4    H   6838   1.175   0.429   0.625
 2196CH4    H   6839   1.221   0.259   0.687
 2196CH4    H   6840   1.272   0.308   0.535
 2197CH4    C   6841   1.181   3.577   5.985
 2197CH4    H   6842   1.190   3.541   6.089
 2197CH4    H   6843   1.075   3.576   5.957
 2197CH4    H   6844   1.220   3.682   6.004
 2197CH4    H   6845   1.242   3.523   5.909
 2198CH4    C   6846   1.790   0.008   0.862
 2198CH4    H   6847   1.895   0.048   0.850
 2198CH4    H   6848   1.729   0.080   0.920
 2198CH4    H   6849   1.731  -0.011   0.767
 2198CH4    H   6850   1.797  -0.089   0.913
 2199CH4    C   6851   1.857   3.571   1.527
 2199CH4    H   6852   1.957   3.556   1.571
 2199CH4    H   6853   1.789   3.494   1.563
 2199CH4    H   6854   1.828   3.669   1.553
 2199CH4    H   6855   1.866   3.571   1.416
 2200CH4    C   6856   1.185   0.881   1.832
 2200CH4    H   6857   1.211   0.927   1.935
 2200CH4    H   6858   1.138   0.961   1.778
 2200CH4    H   6859   1.278   0.858   1.781
 2200CH4    H   6860   1.110   0.798   1.848
 2201CH4    C   6861   1.490   0.538   1.267
 2201CH4    H   6862   1.576   0.602   1.255
 2201CH4    H   6863   1.454   0.548   1.376
 2201CH4    H   6864   1.410   0.566   1.205
 2201CH4    H   6865   1.517   0.435   1.239
 2202CH4    C   6866   1.751   0.603   1.769
 2202CH4    H   6867   1.825   0.650   1.840
 2202CH4    H   6868   1.796   0.583   1.673
 2202CH4    H   6869   1.721   0.500   1.801
 2202CH4    H   6870   1.666   0.672   1.747
 2203CH4    C   6871   2.076   0.588   1.155
 2203CH4    H   6872   2.171   0.631   1.137
 2203CH4    H   6873   2.023   0.658   1.224
 2203CH4    H   6874   2.039   0.569   1.055
 2203CH4    H   6875   2.096   0.488   1.199
 2204CH4    C   6876   1.148   0.340   1.846
 2204CH4    H   6877   1.219   0.310   1.925
 2204CH4    H   6878   1.144   0.265   1.764
 2204CH4    H   6879   1.052   0.354   1.885
 2204CH4    H   6880   1.194   0.429   1.799
 2205CH4    C   6881   1.140   0.008   1.197
 2205CH4    H   6882   1.080   0.096   1.162
 2205CH4    H   6883   1.064  -0.059   1.243
 2205CH4    H   6884   1.204  -0.041   1.126
 2205CH4    H   6885   1.206   0.043   1.283
 2206CH4    C   6886   1.849   0.035   2.086
 2206CH4    H   6887   1.931  -0.025   2.063
 2206CH4    H   6888   1.780   0.040   1.996
 2206CH4    H   6889   1.796  -0.006   2.172
 2206CH4    H   6890   1.889   0.135   2.113
 2207CH4    C   6891   1.786   0.011   2.701
 2207CH4    H   6892   1.759  -0.052   2.621
 2207CH4    H   6893   1.778   0.116   2.667
 2207CH4    H   6894   1.712  -0.005   2.782
 2207CH4    H   6895   1.892  -0.010   2.731
 2208CH4    C   6896   1.168   0.898   2.995
 2208CH4    H   6897   1.089   0.828   3.015
 2208CH4    H   6898   1.221   0.925   3.091
 2208CH4    H   6899   1.243   0.870   2.917
 2208CH4    H   6900   1.111   0.985   2.961
 2209CH4    C   6901   1.458   0.560   2.480
 2209CH4    H   6902   1.551   0.511   2.450
 2209CH4    H   6903   1.436   0.565   2.590
 2209CH4    H   6904   1.461   0.664   2.449
 2209CH4    H   6905   1.377   0.506   2.427
 2210CH4    C   6906   1.825   0.576   3.020
 2210CH4    H   6907   1.810   0.563   2.909
 2210CH4    H   6908   1.870   0.486   3.067
 2210CH4    H   6909   1.890   0.658   3.055
 2210CH4    H   6910   1.723   0.596   3.056
 2211CH4    C   6911   2.099   0.570   2.440
 2211CH4    H   6912   2.053   0.667   2.438
 2211CH4    H   6913   2.152   0.537   2.354
 2211CH4    H   6914   2.166   0.587   2.526
 2211CH4    H   6915   2.017   0.500   2.468
 2212CH4    C   6916   1.153   0.308   2.990
 2212CH4    H   6917   1.249   0.364   2.979
 2212CH4    H   6918   1.118   0.276   2.892
 2212CH4    H   6919   1.167   0.220   3.063
 2212CH4    H   6920   1.073   0.366   3.041
 2213CH4    C   6921   1.225   3.582   2.381
 2213CH4    H   6922   1.154   3.518   2.339
 2213CH4    H   6923   1.289   3.632   2.306
 2213CH4    H   6924   1.166   3.662   2.433
 2213CH4    H   6925   1.279   3.519   2.452
 2214CH4    C   6926   1.827   0.063   3.268
 2214CH4    H   6927   1.939   0.055   3.282
 2214CH4    H   6928   1.781  -0.015   3.199
 2214CH4    H   6929   1.773   0.063   3.371
 2214CH4    H   6930   1.809   0.164   3.232
 2215CH4    C   6931   1.806   3.591   3.864
 2215CH4    H   6932   1.748   3.503   3.848
 2215CH4    H   6933   1.902   3.574   3.892
 2215CH4    H   6934   1.800   3.646   3.770
 2215CH4    H   6935   1.764   3.652   3.945
 2216CH4    C   6936   1.141   0.833   4.216
 2216CH4    H   6937   1.150   0.738   4.153
 2216CH4    H   6938   1.249   0.855   4.240
 2216CH4    H   6939   1.086   0.909   4.162
 2216CH4    H   6940   1.083   0.805   4.304
 2217CH4    C   6941   1.545   0.561   3.609
 2217CH4    H   6942   1.495   0.659   3.612
 2217CH4    H   6943   1.527   0.511   3.705
 2217CH4    H   6944   1.508   0.500   3.528
 2217CH4    H   6945   1.652   0.570   3.598
 2218CH4    C   6946   1.763   0.573   4.176
 2218CH4    H   6947   1.818   0.488   4.221
 2218CH4    H   6948   1.659   0.560   4.217
 2218CH4    H   6949   1.820   0.660   4.215
 2218CH4    H   6950   1.762   0.575   4.068
 2219CH4    C   6951   2.177   0.529   3.612
 2219CH4    H   6952   2.094   0.602   3.594
 2219CH4    H   6953   2.186   0.502   3.720
 2219CH4    H   6954   2.161   0.440   3.551
 2219CH4    H   6955   2.272   0.583   3.585
 2220CH4    C   6956   1.122   0.299   4.148
 2220CH4    H   6957   1.142   0.288   4.259
 2220CH4    H   6958   1.160   0.397   4.111
 2220CH4    H   6959   1.171   0.209   4.102
 2220CH4    H   6960   1.016   0.290   4.136
 2221CH4    C   6961   1.155   3.550   3.662
 2221CH4    H   6962   1.261   3.586   3.685
 2221CH4    H   6963   1.085   3.561   3.741
 2221CH4    H   6964   1.131   3.614   3.573
 2221CH4    H   6965   1.167   3.451   3.613
 2222CH4    C   6966   1.800   3.554   4.506
 2222CH4    H   6967   1.785   3.456   4.458
 2222CH4    H   6968   1.727   3.625   4.465
 2222CH4    H   6969   1.780   3.548   4.614
 2222CH4    H   6970   1.900   3.583   4.485
 2223CH4    C   6971   1.774   3.533   5.098
 2223CH4    H   6972   1.800   3.637   5.084
 2223CH4    H   6973   1.779   3.504   5.205
 2223CH4    H   6974   1.677   3.505   5.057
 2223CH4    H   6975   1.851   3.477   5.051
 2224CH4    C   6976   1.200   0.889   5.370
 2224CH4    H   6977   1.226   0.999   5.362
 2224CH4    H   6978   1.216   0.875   5.477
 2224CH4    H   6979   1.103   0.861   5.332
 2224CH4    H   6980   1.267   0.830   5.320
 2225CH4    C   6981   1.414   0.614   4.826
 2225CH4    H   6982   1.432   0.564   4.921
 2225CH4    H   6983   1.315   0.608   4.790
 2225CH4    H   6984   1.421   0.726   4.839
 2225CH4    H   6985   1.476   0.578   4.744
 2226CH4    C   6986   1.802   0.593   5.421
 2226CH4    H   6987   1.873   0.663   5.381
 2226CH4    H   6988   1.841   0.495   5.405
 2226CH4    H   6989   1.780   0.617   5.522
 2226CH4    H   6990   1.719   0.610   5.347
 2227CH4    C   6991   2.084   0.568   4.781
 2227CH4    H   6992   2.147   0.487   4.825
 2227CH4    H   6993   1.979   0.548   4.819
 2227CH4    H   6994   2.125   0.669   4.811
 2227CH4    H   6995   2.080   0.566   4.669
 2228CH4    C   6996   1.215   0.323   5.327
 2228CH4    H   6997   1.223   0.427   5.289
 2228CH4    H   6998   1.286   0.256   5.276
 2228CH4    H   6999   1.235   0.323   5.439
 2228CH4    H   7000   1.107   0.292   5.324
 2229CH4    C   7001   1.178   0.024   4.844
 2229CH4    H   7002   1.102  -0.031   4.785
 2229CH4    H   7003   1.261  -0.038   4.878
 2229CH4    H   7004   1.214   0.103   4.776
 2229CH4    H   7005   1.131   0.078   4.925
 2230CH4    C   7006   1.782   3.568   5.654
 2230CH4    H   7007   1.736   3.470   5.674
 2230CH4    H   7008   1.776   3.632   5.743
 2230CH4    H   7009   1.882   3.560   5.619
 2230CH4    H   7010   1.734   3.617   5.569
 2231CH4    C   7011   1.839   1.147   0.328
 2231CH4    H   7012   1.764   1.071   0.317
 2231CH4    H   7013   1.848   1.167   0.437
 2231CH4    H   7014   1.934   1.105   0.287
 2231CH4    H   7015   1.801   1.240   0.277
 2232CH4    C   7016   1.128   2.160   0.576
 2232CH4    H   7017   1.235   2.153   0.594
 2232CH4    H   7018   1.096   2.258   0.600
 2232CH4    H   7019   1.116   2.114   0.480
 2232CH4    H   7020   1.084   2.097   0.656
 2233CH4    C   7021   1.527   1.772   0.022
 2233CH4    H   7022   1.556   1.808   0.124
 2233CH4    H   7023   1.425   1.733   0.025
 2233CH4    H   7024   1.531   1.855  -0.048
 2233CH4    H   7025   1.602   1.697   0.000
 2234CH4    C   7026   1.797   1.764   0.607
 2234CH4    H   7027   1.754   1.668   0.589
 2234CH4    H   7028   1.722   1.837   0.568
 2234CH4    H   7029   1.814   1.779   0.716
 2234CH4    H   7030   1.896   1.783   0.562
 2235CH4    C   7031   2.073   1.742   5.968
 2235CH4    H   7032   2.125   1.770   5.870
 2235CH4    H   7033   2.112   1.806   6.048
 2235CH4    H   7034   1.965   1.758   5.957
 2235CH4    H   7035   2.106   1.640   6.000
 2236CH4    C   7036   1.218   1.428   0.588
 2236CH4    H   7037   1.318   1.397   0.628
 2236CH4    H   7038   1.210   1.541   0.587
 2236CH4    H   7039   1.204   1.389   0.488
 2236CH4    H   7040   1.136   1.398   0.655
 2237CH4    C   7041   1.173   1.128   0.001
 2237CH4    H   7042   1.211   1.072  -0.082
 2237CH4    H   7043   1.139   1.069   0.079
 2237CH4    H   7044   1.249   1.198   0.040
 2237CH4    H   7045   1.083   1.164  -0.038
 2238CH4    C   7046   1.747   1.211   0.874
 2238CH4    H   7047   1.644   1.170   0.880
 2238CH4    H   7048   1.752   1.320   0.869
 2238CH4    H   7049   1.797   1.172   0.964
 2238CH4    H   7050   1.795   1.176   0.783
 2239CH4    C   7051   1.809   1.205   1.504
 2239CH4    H   7052   1.769   1.281   1.573
 2239CH4    H   7053   1.775   1.214   1.402
 2239CH4    H   7054   1.912   1.240   1.502
 2239CH4    H   7055   1.796   1.105   1.553
 2240CH4    C   7056   1.237   2.058   1.761
 2240CH4    H   7057   1.197   2.135   1.699
 2240CH4    H   7058   1.218   2.088   1.864
 2240CH4    H   7059   1.177   1.965   1.748
 2240CH4    H   7060   1.343   2.052   1.732
 2241CH4    C   7061   1.467   1.733   1.156
 2241CH4    H   7062   1.472   1.666   1.061
 2241CH4    H   7063   1.570   1.732   1.198
 2241CH4    H   7064   1.424   1.833   1.132
 2241CH4    H   7065   1.403   1.689   1.233
 2242CH4    C   7066   1.767   1.756   1.795
 2242CH4    H   7067   1.699   1.796   1.873
 2242CH4    H   7068   1.705   1.754   1.703
 2242CH4    H   7069   1.848   1.829   1.784
 2242CH4    H   7070   1.803   1.650   1.816
 2243CH4    C   7071   2.117   1.801   1.200
 2243CH4    H   7072   2.091   1.832   1.098
 2243CH4    H   7073   2.138   1.892   1.254
 2243CH4    H   7074   2.042   1.751   1.255
 2243CH4    H   7075   2.201   1.728   1.194
 2244CH4    C   7076   1.198   1.536   1.819
 2244CH4    H   7077   1.125   1.566   1.897
 2244CH4    H   7078   1.150   1.547   1.720
 2244CH4    H   7079   1.285   1.603   1.826
 2244CH4    H   7080   1.218   1.427   1.847
 2245CH4    C   7081   1.154   1.190   1.201
 2245CH4    H   7082   1.161   1.288   1.248
 2245CH4    H   7083   1.055   1.159   1.177
 2245CH4    H   7084   1.208   1.195   1.102
 2245CH4    H   7085   1.188   1.122   1.273
 2246CH4    C   7086   1.690   1.205   2.060
 2246CH4    H   7087   1.700   1.297   2.003
 2246CH4    H   7088   1.751   1.131   2.007
 2246CH4    H   7089   1.737   1.226   2.162
 2246CH4    H   7090   1.582   1.187   2.058
 2247CH4    C   7091   1.764   1.152   2.639
 2247CH4    H   7092   1.703   1.064   2.612
 2247CH4    H   7093   1.700   1.234   2.685
 2247CH4    H   7094   1.833   1.097   2.703
 2247CH4    H   7095   1.826   1.200   2.559
 2248CH4    C   7096   1.152   2.113   3.046
 2248CH4    H   7097   1.120   2.009   3.029
 2248CH4    H   7098   1.131   2.178   2.959
 2248CH4    H   7099   1.108   2.146   3.142
 2248CH4    H   7100   1.263   2.116   3.064
 2249CH4    C   7101   1.497   1.718   2.395
 2249CH4    H   7102   1.448   1.673   2.485
 2249CH4    H   7103   1.595   1.669   2.383
 2249CH4    H   7104   1.428   1.693   2.317
 2249CH4    H   7105   1.501   1.833   2.399
 2250CH4    C   7106   1.773   1.804   3.006
 2250CH4    H   7107   1.784   1.814   3.111
 2250CH4    H   7108   1.674   1.846   2.981
 2250CH4    H   7109   1.854   1.861   2.958
 2250CH4    H   7110   1.765   1.694   2.980
 2251CH4    C   7111   2.071   1.811   2.457
 2251CH4    H   7112   2.107   1.871   2.367
 2251CH4    H   7113   1.961   1.806   2.453
 2251CH4    H   7114   2.118   1.714   2.458
 2251CH4    H   7115   2.096   1.871   2.547
 2252CH4    C   7116   1.285   1.470   3.031
 2252CH4    H   7117   1.275   1.540   2.942
 2252CH4    H   7118   1.388   1.471   3.056
 2252CH4    H   7119   1.229   1.517   3.107
 2252CH4    H   7120   1.247   1.368   3.001
 2253CH4    C   7121   1.233   1.147   2.391
 2253CH4    H   7122   1.169   1.120   2.303
 2253CH4    H   7123   1.322   1.208   2.378
 2253CH4    H   7124   1.175   1.195   2.478
 2253CH4    H   7125   1.254   1.046   2.428
 2254CH4    C   7126   1.787   1.139   3.328
 2254CH4    H   7127   1.731   1.226   3.298
 2254CH4    H   7128   1.897   1.156   3.314
 2254CH4    H   7129   1.766   1.117   3.432
 2254CH4    H   7130   1.762   1.054   3.261
 2255CH4    C   7131   1.785   1.168   3.955
 2255CH4    H   7132   1.698   1.115   3.912
 2255CH4    H   7133   1.761   1.256   4.025
 2255CH4    H   7134   1.831   1.084   4.015
 2255CH4    H   7135   1.844   1.207   3.868
 2256CH4    C   7136   1.188   2.034   4.165
 2256CH4    H   7137   1.233   1.940   4.113
 2256CH4    H   7138   1.122   1.999   4.242
 2256CH4    H   7139   1.266   2.088   4.219
 2256CH4    H   7140   1.136   2.098   4.094
 2257CH4    C   7141   1.479   1.730   3.618
 2257CH4    H   7142   1.573   1.756   3.651
 2257CH4    H   7143   1.483   1.645   3.546
 2257CH4    H   7144   1.409   1.705   3.696
 2257CH4    H   7145   1.433   1.810   3.560
 2258CH4    C   7146   1.772   1.766   4.178
 2258CH4    H   7147   1.850   1.838   4.166
 2258CH4    H   7148   1.794   1.684   4.107
 2258CH4    H   7149   1.775   1.726   4.279
 2258CH4    H   7150   1.668   1.814   4.165
 2259CH4    C   7151   2.128   1.746   3.675
 2259CH4    H   7152   2.180   1.828   3.730
 2259CH4    H   7153   2.060   1.708   3.750
 2259CH4    H   7154   2.077   1.786   3.585
 2259CH4    H   7155   2.194   1.662   3.650
 2260CH4    C   7156   1.158   1.519   4.181
 2260CH4    H   7157   1.213   1.418   4.173
 2260CH4    H   7158   1.129   1.544   4.077
 2260CH4    H   7159   1.073   1.515   4.244
 2260CH4    H   7160   1.225   1.591   4.210
 2261CH4    C   7161   1.178   1.189   3.573
 2261CH4    H   7162   1.173   1.282   3.627
 2261CH4    H   7163   1.150   1.102   3.635
 2261CH4    H   7164   1.119   1.192   3.483
 2261CH4    H   7165   1.283   1.169   3.543
 2262CH4    C   7166   1.748   1.230   4.522
 2262CH4    H   7167   1.641   1.200   4.508
 2262CH4    H   7168   1.782   1.310   4.455
 2262CH4    H   7169   1.761   1.277   4.620
 2262CH4    H   7170   1.807   1.134   4.523
 2263CH4    C   7171   1.835   1.109   5.120
 2263CH4    H   7172   1.850   1.030   5.055
 2263CH4    H   7173   1.910   1.098   5.208
 2263CH4    H   7174   1.874   1.191   5.066
 2263CH4    H   7175   1.731   1.115   5.144
 2264CH4    C   7176   1.138   2.103   5.462
 2264CH4    H   7177   1.107   2.041   5.546
 2264CH4    H   7178   1.195   2.046   5.389
 2264CH4    H   7179   1.047   2.139   5.410
 2264CH4    H   7180   1.204   2.185   5.490
 2265CH4    C   7181   1.493   1.832   4.849
 2265CH4    H   7182   1.600   1.812   4.820
 2265CH4    H   7183   1.490   1.926   4.905
 2265CH4    H   7184   1.455   1.823   4.746
 2265CH4    H   7185   1.452   1.748   4.907
 2266CH4    C   7186   1.740   1.801   5.401
 2266CH4    H   7187   1.719   1.898   5.437
 2266CH4    H   7188   1.671   1.724   5.438
 2266CH4    H   7189   1.736   1.802   5.296
 2266CH4    H   7190   1.843   1.769   5.423
 2267CH4    C   7191   2.116   1.806   4.837
 2267CH4    H   7192   2.141   1.785   4.940
 2267CH4    H   7193   2.009   1.778   4.821
 2267CH4    H   7194   2.124   1.912   4.805
 2267CH4    H   7195   2.178   1.741   4.773
 2268CH4    C   7196   1.152   1.459   5.441
 2268CH4    H   7197   1.099   1.515   5.365
 2268CH4    H   7198   1.135   1.515   5.532
 2268CH4    H   7199   1.111   1.357   5.447
 2268CH4    H   7200   1.257   1.456   5.416
 2269CH4    C   7201   1.139   1.163   4.827
 2269CH4    H   7202   1.215   1.086   4.841
 2269CH4    H   7203   1.115   1.188   4.928
 2269CH4    H   7204   1.178   1.243   4.774
 2269CH4    H   7205   1.051   1.113   4.787
 2270CH4    C   7206   1.866   1.184   5.639
 2270CH4    H   7207   1.810   1.090   5.666
 2270CH4    H   7208   1.859   1.262   5.719
 2270CH4    H   7209   1.972   1.159   5.623
 2270CH4    H   7210   1.816   1.226   5.548
 2271CH4    C   7211   1.756   2.451   0.270
 2271CH4    H   7212   1.669   2.404   0.222
 2271CH4    H   7213   1.731   2.506   0.358
 2271CH4    H   7214   1.827   2.372   0.302
 2271CH4    H   7215   1.804   2.518   0.193
 2272CH4    C   7216   1.225   3.277   0.633
 2272CH4    H   7217   1.151   3.200   0.649
 2272CH4    H   7218   1.201   3.367   0.687
 2272CH4    H   7219   1.324   3.250   0.675
 2272CH4    H   7220   1.233   3.308   0.528
 2273CH4    C   7221   1.490   2.964   5.937
 2273CH4    H   7222   1.492   2.969   6.046
 2273CH4    H   7223   1.453   2.867   5.904
 2273CH4    H   7224   1.418   3.042   5.903
 2273CH4    H   7225   1.588   2.996   5.901
 2274CH4    C   7226   1.745   2.986   0.597
 2274CH4    H   7227   1.811   2.903   0.629
 2274CH4    H   7228   1.639   2.942   0.587
 2274CH4    H   7229   1.745   3.058   0.681
 2274CH4    H   7230   1.781   3.026   0.505
 2275CH4    C   7231   2.078   2.964   0.052
 2275CH4    H   7232   1.995   3.018   0.052
 2275CH4    H   7233   2.108   2.973   0.154
 2275CH4    H   7234   2.060   2.861   0.035
 2275CH4    H   7235   2.159   2.999  -0.014
 2276CH4    C   7236   1.211   2.674   0.491
 2276CH4    H   7237   1.249   2.588   0.553
 2276CH4    H   7238   1.206   2.762   0.553
 2276CH4    H   7239   1.269   2.693   0.404
 2276CH4    H   7240   1.104   2.659   0.453
 2277CH4    C   7241   1.170   2.367   5.997
 2277CH4    H   7242   1.283   2.382   5.981
 2277CH4    H   7243   1.117   2.455   5.977
 2277CH4    H   7244   1.137   2.294   5.924
 2277CH4    H   7245   1.142   2.326   6.098
 2278CH4    C   7246   1.829   2.412   0.845
 2278CH4    H   7247   1.787   2.445   0.943
 2278CH4    H   7248   1.934   2.430   0.833
 2278CH4    H   7249   1.821   2.304   0.836
 2278CH4    H   7250   1.770   2.448   0.764
 2279CH4    C   7251   1.762   2.385   1.451
 2279CH4    H   7252   1.695   2.313   1.402
 2279CH4    H   7253   1.711   2.447   1.527
 2279CH4    H   7254   1.846   2.328   1.487
 2279CH4    H   7255   1.801   2.457   1.370
 2280CH4    C   7256   1.226   3.312   1.839
 2280CH4    H   7257   1.248   3.420   1.834
 2280CH4    H   7258   1.127   3.295   1.883
 2280CH4    H   7259   1.255   3.259   1.746
 2280CH4    H   7260   1.291   3.270   1.917
 2281CH4    C   7261   1.430   2.900   1.193
 2281CH4    H   7262   1.509   2.873   1.267
 2281CH4    H   7263   1.379   2.812   1.154
 2281CH4    H   7264   1.370   2.976   1.249
 2281CH4    H   7265   1.483   2.952   1.111
 2282CH4    C   7266   1.766   3.003   1.753
 2282CH4    H   7267   1.845   2.974   1.688
 2282CH4    H   7268   1.684   2.932   1.735
 2282CH4    H   7269   1.801   3.009   1.858
 2282CH4    H   7270   1.724   3.104   1.727
 2283CH4    C   7271   2.036   2.925   1.209
 2283CH4    H   7272   2.001   2.921   1.316
 2283CH4    H   7273   1.962   2.967   1.137
 2283CH4    H   7274   2.119   2.987   1.199
 2283CH4    H   7275   2.067   2.825   1.177
 2284CH4    C   7276   1.235   2.703   1.787
 2284CH4    H   7277   1.347   2.704   1.778
 2284CH4    H   7278   1.225   2.639   1.879
 2284CH4    H   7279   1.196   2.800   1.810
 2284CH4    H   7280   1.194   2.661   1.697
 2285CH4    C   7281   1.182   2.385   1.163
 2285CH4    H   7282   1.172   2.408   1.273
 2285CH4    H   7283   1.250   2.460   1.119
 2285CH4    H   7284   1.226   2.288   1.155
 2285CH4    H   7285   1.087   2.382   1.112
 2286CH4    C   7286   1.841   2.393   2.115
 2286CH4    H   7287   1.943   2.419   2.110
 2286CH4    H   7288   1.826   2.296   2.165
 2286CH4    H   7289   1.797   2.475   2.178
 2286CH4    H   7290   1.799   2.396   2.012
 2287CH4    C   7291   1.749   2.407   2.664
 2287CH4    H   7292   1.838   2.369   2.618
 2287CH4    H   7293   1.772   2.513   2.702
 2287CH4    H   7294   1.657   2.401   2.608
 2287CH4    H   7295   1.742   2.347   2.753
 2288CH4    C   7296   1.172   3.261   2.933
 2288CH4    H   7297   1.272   3.310   2.917
 2288CH4    H   7298   1.107   3.302   2.858
 2288CH4    H   7299   1.177   3.155   2.926
 2288CH4    H   7300   1.129   3.285   3.030
 2289CH4    C   7301   1.528   2.990   2.335
 2289CH4    H   7302   1.532   3.013   2.224
 2289CH4    H   7303   1.424   2.967   2.360
 2289CH4    H   7304   1.592   2.900   2.356
 2289CH4    H   7305   1.562   3.080   2.380
 2290CH4    C   7306   1.774   2.962   2.979
 2290CH4    H   7307   1.706   3.009   3.050
 2290CH4    H   7308   1.854   3.039   2.957
 2290CH4    H   7309   1.821   2.873   3.015
 2290CH4    H   7310   1.726   2.940   2.885
 2291CH4    C   7311   2.076   3.036   2.360
 2291CH4    H   7312   2.019   2.976   2.440
 2291CH4    H   7313   2.150   2.981   2.298
 2291CH4    H   7314   1.999   3.075   2.290
 2291CH4    H   7315   2.124   3.129   2.400
 2292CH4    C   7316   1.224   2.697   3.029
 2292CH4    H   7317   1.329   2.702   3.009
 2292CH4    H   7318   1.162   2.766   2.973
 2292CH4    H   7319   1.184   2.596   3.013
 2292CH4    H   7320   1.208   2.720   3.134
 2293CH4    C   7321   1.205   2.427   2.390
 2293CH4    H   7322   1.226   2.456   2.293
 2293CH4    H   7323   1.153   2.502   2.452
 2293CH4    H   7324   1.135   2.336   2.380
 2293CH4    H   7325   1.307   2.401   2.439
 2294CH4    C   7326   1.779   2.310   3.264
 2294CH4    H   7327   1.842   2.390   3.303
 2294CH4    H   7328   1.697   2.293   3.339
 2294CH4    H   7329   1.722   2.345   3.177
 2294CH4    H   7330   1.829   2.213   3.250
 2295CH4    C   7331   1.804   2.375   3.875
 2295CH4    H   7332   1.712   2.375   3.934
 2295CH4    H   7333   1.791   2.365   3.766
 2295CH4    H   7334   1.854   2.474   3.895
 2295CH4    H   7335   1.868   2.299   3.921
 2296CH4    C   7336   1.138   3.325   4.252
 2296CH4    H   7337   1.075   3.291   4.342
 2296CH4    H   7338   1.072   3.319   4.166
 2296CH4    H   7339   1.175   3.425   4.258
 2296CH4    H   7340   1.224   3.253   4.240
 2297CH4    C   7341   1.519   2.958   3.512
 2297CH4    H   7342   1.585   3.013   3.582
 2297CH4    H   7343   1.569   2.884   3.449
 2297CH4    H   7344   1.455   2.888   3.574
 2297CH4    H   7345   1.465   3.031   3.453
 2298CH4    C   7346   1.767   2.986   4.217
 2298CH4    H   7347   1.674   3.023   4.261
 2298CH4    H   7348   1.766   3.013   4.112
 2298CH4    H   7349   1.851   3.024   4.270
 2298CH4    H   7350   1.775   2.878   4.225
 2299CH4    C   7351   2.094   2.877   3.572
 2299CH4    H   7352   2.087   2.876   3.682
 2299CH4    H   7353   2.062   2.976   3.536
 2299CH4    H   7354   2.195   2.854   3.528
 2299CH4    H   7355   2.028   2.793   3.543
 2300CH4    C   7356   1.118   2.678   4.183
 2300CH4    H   7357   1.079   2.752   4.261
 2300CH4    H   7358   1.048   2.611   4.132
 2300CH4    H   7359   1.174   2.730   4.103
 2300CH4    H   7360   1.193   2.616   4.226
 2301CH4    C   7361   1.237   2.356   3.619
 2301CH4    H   7362   1.161   2.432   3.580
 2301CH4    H   7363   1.200   2.298   3.706
 2301CH4    H   7364   1.265   2.290   3.540
 2301CH4    H   7365   1.333   2.400   3.657
 2302CH4    C   7366   1.789   2.397   4.456
 2302CH4    H   7367   1.787   2.396   4.572
 2302CH4    H   7368   1.817   2.499   4.432
 2302CH4    H   7369   1.857   2.317   4.423
 2302CH4    H   7370   1.693   2.375   4.404
 2303CH4    C   7371   1.768   2.412   5.116
 2303CH4    H   7372   1.758   2.308   5.083
 2303CH4    H   7373   1.670   2.442   5.150
 2303CH4    H   7374   1.841   2.414   5.198
 2303CH4    H   7375   1.806   2.479   5.037
 2304CH4    C   7376   1.162   3.281   5.355
 2304CH4    H   7377   1.260   3.308   5.406
 2304CH4    H   7378   1.161   3.318   5.255
 2304CH4    H   7379   1.145   3.169   5.352
 2304CH4    H   7380   1.085   3.339   5.408
 2305CH4    C   7381   1.457   2.980   4.762
 2305CH4    H   7382   1.559   2.942   4.762
 2305CH4    H   7383   1.385   2.922   4.817
 2305CH4    H   7384   1.469   3.079   4.808
 2305CH4    H   7385   1.424   2.981   4.658
 2306CH4    C   7386   1.781   2.967   5.375
 2306CH4    H   7387   1.877   2.954   5.326
 2306CH4    H   7388   1.788   3.067   5.414
 2306CH4    H   7389   1.707   2.962   5.295
 2306CH4    H   7390   1.758   2.896   5.461
 2307CH4    C   7391   2.117   3.002   4.752
 2307CH4    H   7392   2.177   2.995   4.659
 2307CH4    H   7393   2.146   3.079   4.826
 2307CH4    H   7394   2.009   3.015   4.722
 2307CH4    H   7395   2.116   2.897   4.795
 2308CH4    C   7396   1.117   2.726   5.462
 2308CH4    H   7397   1.011   2.740   5.429
 2308CH4    H   7398   1.152   2.631   5.413
 2308CH4    H   7399   1.184   2.812   5.440
 2308CH4    H   7400   1.120   2.712   5.568
 2309CH4    C   7401   1.212   2.359   4.806
 2309CH4    H   7402   1.203   2.340   4.915
 2309CH4    H   7403   1.315   2.393   4.790
 2309CH4    H   7404   1.206   2.265   4.756
 2309CH4    H   7405   1.134   2.427   4.765
 2310CH4    C   7406   1.808   2.428   5.647
 2310CH4    H   7407   1.784   2.394   5.549
 2310CH4    H   7408   1.757   2.360   5.721
 2310CH4    H   7409   1.916   2.421   5.658
 2310CH4    H   7410   1.773   2.528   5.674
 2311CH4    C   7411   3.081   0.038   0.290
 2311CH4    H   7412   3.040  -0.056   0.340
 2311CH4    H   7413   3.173  -0.004   0.251
 2311CH4    H   7414   3.015   0.073   0.210
 2311CH4    H   7415   3.094   0.118   0.365
 2312CH4    C   7416   2.373   0.918   0.618
 2312CH4    H   7417   2.273   0.871   0.620
 2312CH4    H   7418   2.407   0.945   0.718
 2312CH4    H   7419   2.445   0.840   0.585
 2312CH4    H   7420   2.382   1.013   0.560
 2313CH4    C   7421   2.702   0.528   0.020
 2313CH4    H   7422   2.629   0.605   0.009
 2313CH4    H   7423   2.724   0.513   0.129
 2313CH4    H   7424   2.657   0.435  -0.025
 2313CH4    H   7425   2.787   0.565  -0.037
 2314CH4    C   7426   3.023   0.575   0.585
 2314CH4    H   7427   2.989   0.628   0.670
 2314CH4    H   7428   3.121   0.527   0.604
 2314CH4    H   7429   2.944   0.494   0.563
 2314CH4    H   7430   3.036   0.641   0.500
 2315CH4    C   7431   3.278   0.559   0.106
 2315CH4    H   7432   3.238   0.469   0.060
 2315CH4    H   7433   3.212   0.651   0.082
 2315CH4    H   7434   3.285   0.539   0.214
 2315CH4    H   7435   3.378   0.569   0.057
 2316CH4    C   7436   2.466   0.280   0.526
 2316CH4    H   7437   2.386   0.346   0.568
 2316CH4    H   7438   2.565   0.319   0.552
 2316CH4    H   7439   2.460   0.176   0.563
 2316CH4    H   7440   2.466   0.271   0.416
 2317CH4    C   7441   2.382   3.594   5.993
 2317CH4    H   7442   2.436   3.573   5.896
 2317CH4    H   7443   2.410   3.513   6.063
 2317CH4    H   7444   2.424   3.683   6.029
 2317CH4    H   7445   2.274   3.595   5.984
 2318CH4    C   7446   3.021   3.537   0.919
 2318CH4    H   7447   2.948   3.593   0.859
 2318CH4    H   7448   3.020   3.425   0.907
 2318CH4    H   7449   3.120   3.574   0.888
 2318CH4    H   7450   3.007   3.548   1.028
 2319CH4    C   7451   2.979   3.549   1.477
 2319CH4    H   7452   3.035   3.560   1.383
 2319CH4    H   7453   2.874   3.577   1.461
 2319CH4    H   7454   2.992   3.452   1.518
 2319CH4    H   7455   3.020   3.633   1.536
 2320CH4    C   7456   2.332   0.917   1.834
 2320CH4    H   7457   2.228   0.918   1.814
 2320CH4    H   7458   2.371   0.815   1.818
 2320CH4    H   7459   2.380   0.995   1.778
 2320CH4    H   7460   2.346   0.958   1.940
 2321CH4    C   7461   2.664   0.597   1.200
 2321CH4    H   7462   2.708   0.627   1.101
 2321CH4    H   7463   2.685   0.669   1.275
 2321CH4    H   7464   2.556   0.588   1.187
 2321CH4    H   7465   2.708   0.502   1.235
 2322CH4    C   7466   2.997   0.588   1.809
 2322CH4    H   7467   3.003   0.607   1.705
 2322CH4    H   7468   3.107   0.590   1.837
 2322CH4    H   7469   2.927   0.659   1.855
 2322CH4    H   7470   2.964   0.482   1.814
 2323CH4    C   7471   3.271   0.562   1.234
 2323CH4    H   7472   3.306   0.634   1.159
 2323CH4    H   7473   3.343   0.566   1.317
 2323CH4    H   7474   3.168   0.577   1.270
 2323CH4    H   7475   3.271   0.471   1.182
 2324CH4    C   7476   2.447   0.339   1.761
 2324CH4    H   7477   2.488   0.381   1.859
 2324CH4    H   7478   2.475   0.232   1.767
 2324CH4    H   7479   2.339   0.334   1.756
 2324CH4    H   7480   2.490   0.392   1.672
 2325CH4    C   7481   2.357   3.573   1.184
 2325CH4    H   7482   2.411   3.523   1.105
 2325CH4    H   7483   2.323   3.494   1.257
 2325CH4    H   7484   2.429   3.626   1.247
 2325CH4    H   7485   2.264   3.621   1.152
 2326CH4    C   7486   3.046   0.015   2.089
 2326CH4    H   7487   3.104  -0.063   2.138
 2326CH4    H   7488   3.107   0.105   2.069
 2326CH4    H   7489   3.007  -0.027   1.999
 2326CH4    H   7490   2.957   0.058   2.141
 2327CH4    C   7491   2.949   3.530   2.728
 2327CH4    H   7492   2.851   3.575   2.727
 2327CH4    H   7493   3.011   3.579   2.799
 2327CH4    H   7494   2.930   3.426   2.748
 2327CH4    H   7495   2.994   3.531   2.629
 2328CH4    C   7496   2.293   0.911   3.021
 2328CH4    H   7497   2.351   0.915   3.115
 2328CH4    H   7498   2.183   0.894   3.033
 2328CH4    H   7499   2.297   1.000   2.968
 2328CH4    H   7500   2.339   0.840   2.949
 2329CH4    C   7501   2.647   0.605   2.439
 2329CH4    H   7502   2.695   0.543   2.513
 2329CH4    H   7503   2.696   0.589   2.339
 2329CH4    H   7504   2.541   0.579   2.440
 2329CH4    H   7505   2.675   0.710   2.469
 2330CH4    C   7506   2.946   0.563   2.950
 2330CH4    H   7507   2.999   0.466   2.953
 2330CH4    H   7508   2.888   0.575   3.043
 2330CH4    H   7509   3.017   0.648   2.957
 2330CH4    H   7510   2.871   0.560   2.875
 2331CH4    C   7511   3.313   0.634   2.434
 2331CH4    H   7512   3.259   0.729   2.425
 2331CH4    H   7513   3.286   0.599   2.534
 2331CH4    H   7514   3.276   0.562   2.359
 2331CH4    H   7515   3.422   0.651   2.421
 2332CH4    C   7516   2.379   0.287   2.940
 2332CH4    H   7517   2.283   0.346   2.944
 2332CH4    H   7518   2.369   0.188   2.980
 2332CH4    H   7519   2.403   0.270   2.833
 2332CH4    H   7520   2.464   0.352   2.978
 2333CH4    C   7521   2.356   0.025   2.384
 2333CH4    H   7522   2.259   0.010   2.341
 2333CH4    H   7523   2.365  -0.006   2.485
 2333CH4    H   7524   2.434  -0.022   2.335
 2333CH4    H   7525   2.379   0.134   2.376
 2334CH4    C   7526   2.981   3.505   3.308
 2334CH4    H   7527   2.885   3.563   3.295
 2334CH4    H   7528   3.063   3.577   3.295
 2334CH4    H   7529   2.984   3.468   3.410
 2334CH4    H   7530   2.995   3.428   3.234
 2335CH4    C   7531   2.941   3.586   3.976
 2335CH4    H   7532   3.042   3.574   3.936
 2335CH4    H   7533   2.960   3.613   4.082
 2335CH4    H   7534   2.892   3.677   3.939
 2335CH4    H   7535   2.881   3.494   3.963
 2336CH4    C   7536   2.381   0.933   4.186
 2336CH4    H   7537   2.477   0.937   4.130
 2336CH4    H   7538   2.307   0.874   4.130
 2336CH4    H   7539   2.407   0.892   4.287
 2336CH4    H   7540   2.351   1.039   4.184
 2337CH4    C   7541   2.673   0.617   3.485
 2337CH4    H   7542   2.756   0.635   3.418
 2337CH4    H   7543   2.699   0.541   3.558
 2337CH4    H   7544   2.631   0.714   3.530
 2337CH4    H   7545   2.607   0.577   3.406
 2338CH4    C   7546   2.991   0.567   4.200
 2338CH4    H   7547   2.995   0.470   4.242
 2338CH4    H   7548   2.893   0.607   4.233
 2338CH4    H   7549   3.080   0.630   4.233
 2338CH4    H   7550   3.013   0.560   4.100
 2339CH4    C   7551   3.283   0.553   3.516
 2339CH4    H   7552   3.203   0.473   3.513
 2339CH4    H   7553   3.274   0.640   3.449
 2339CH4    H   7554   3.293   0.595   3.620
 2339CH4    H   7555   3.375   0.497   3.491
 2340CH4    C   7556   2.444   0.263   4.236
 2340CH4    H   7557   2.337   0.254   4.273
 2340CH4    H   7558   2.452   0.338   4.157
 2340CH4    H   7559   2.517   0.282   4.313
 2340CH4    H   7560   2.470   0.171   4.186
 2341CH4    C   7561   2.370   3.588   3.588
 2341CH4    H   7562   2.467   3.571   3.630
 2341CH4    H   7563   2.288   3.525   3.633
 2341CH4    H   7564   2.353   3.695   3.607
 2341CH4    H   7565   2.373   3.571   3.483
 2342CH4    C   7566   2.960   3.524   4.510
 2342CH4    H   7567   3.066   3.515   4.516
 2342CH4    H   7568   2.929   3.537   4.403
 2342CH4    H   7569   2.915   3.437   4.559
 2342CH4    H   7570   2.929   3.615   4.567
 2343CH4    C   7571   2.971   3.569   5.138
 2343CH4    H   7572   3.020   3.555   5.236
 2343CH4    H   7573   2.945   3.677   5.120
 2343CH4    H   7574   3.040   3.538   5.064
 2343CH4    H   7575   2.883   3.510   5.134
 2344CH4    C   7576   2.433   0.922   5.466
 2344CH4    H   7577   2.365   0.915   5.556
 2344CH4    H   7578   2.364   0.957   5.385
 2344CH4    H   7579   2.507   1.001   5.488
 2344CH4    H   7580   2.486   0.826   5.436
 2345CH4    C   7581   2.726   0.625   4.786
 2345CH4    H   7582   2.689   0.654   4.887
 2345CH4    H   7583   2.713   0.719   4.720
 2345CH4    H   7584   2.824   0.583   4.795
 2345CH4    H   7585   2.676   0.540   4.753
 2346CH4    C   7586   3.003   0.604   5.400
 2346CH4    H   7587   2.973   0.712   5.382
 2346CH4    H   7588   2.965   0.583   5.500
 2346CH4    H   7589   2.956   0.539   5.329
 2346CH4    H   7590   3.114   0.591   5.381
 2347CH4    C   7591   3.324   0.638   4.736
 2347CH4    H   7592   3.421   0.649   4.790
 2347CH4    H   7593   3.350   0.638   4.631
 2347CH4    H   7594   3.273   0.547   4.769
 2347CH4    H   7595   3.267   0.724   4.757
 2348CH4    C   7596   2.395   0.253   5.394
 2348CH4    H   7597   2.369   0.148   5.418
 2348CH4    H   7598   2.308   0.301   5.346
 2348CH4    H   7599   2.432   0.304   5.492
 2348CH4    H   7600   2.477   0.255   5.321
 2349CH4    C   7601   2.373   3.569   4.799
 2349CH4    H   7602   2.404   3.479   4.747
 2349CH4    H   7603   2.409   3.655   4.743
 2349CH4    H   7604   2.264   3.589   4.804
 2349CH4    H   7605   2.424   3.567   4.892
 2350CH4    C   7606   3.018   0.050   5.705
 2350CH4    H   7607   3.091   0.038   5.787
 2350CH4    H   7608   2.982  -0.050   5.672
 2350CH4    H   7609   2.927   0.102   5.741
 2350CH4    H   7610   3.072   0.098   5.618
 2351CH4    C   7611   2.980   1.266   0.281
 2351CH4    H   7612   3.024   1.346   0.223
 2351CH4    H   7613   3.001   1.281   0.390
 2351CH4    H   7614   2.871   1.267   0.276
 2351CH4    H   7615   3.025   1.167   0.263
 2352CH4    C   7616   2.302   2.086   0.616
 2352CH4    H   7617   2.237   2.108   0.531
 2352CH4    H   7618   2.249   2.050   0.693
 2352CH4    H   7619   2.389   2.014   0.599
 2352CH4    H   7620   2.334   2.179   0.663
 2353CH4    C   7621   2.662   1.782   5.953
 2353CH4    H   7622   2.592   1.808   6.035
 2353CH4    H   7623   2.762   1.761   5.989
 2353CH4    H   7624   2.621   1.690   5.905
 2353CH4    H   7625   2.671   1.862   5.884
 2354CH4    C   7626   2.994   1.796   0.572
 2354CH4    H   7627   2.919   1.794   0.650
 2354CH4    H   7628   2.982   1.704   0.506
 2354CH4    H   7629   2.979   1.898   0.526
 2354CH4    H   7630   3.096   1.788   0.612
 2355CH4    C   7631   3.304   1.741   0.034
 2355CH4    H   7632   3.264   1.645  -0.006
 2355CH4    H   7633   3.294   1.735   0.145
 2355CH4    H   7634   3.411   1.751   0.006
 2355CH4    H   7635   3.251   1.829  -0.005
 2356CH4    C   7636   2.404   1.508   0.626
 2356CH4    H   7637   2.462   1.576   0.559
 2356CH4    H   7638   2.424   1.398   0.604
 2356CH4    H   7639   2.429   1.526   0.724
 2356CH4    H   7640   2.295   1.536   0.623
 2357CH4    C   7641   2.377   1.186   0.010
 2357CH4    H   7642   2.401   1.144  -0.088
 2357CH4    H   7643   2.364   1.289  -0.002
 2357CH4    H   7644   2.287   1.143   0.045
 2357CH4    H   7645   2.451   1.180   0.088
 2358CH4    C   7646   3.056   1.277   0.950
 2358CH4    H   7647   2.982   1.282   0.873
 2358CH4    H   7648   2.991   1.253   1.041
 2358CH4    H   7649   3.118   1.194   0.913
 2358CH4    H   7650   3.110   1.371   0.961
 2359CH4    C   7651   2.874   1.220   1.491
 2359CH4    H   7652   2.907   1.173   1.391
 2359CH4    H   7653   2.917   1.164   1.573
 2359CH4    H   7654   2.895   1.325   1.486
 2359CH4    H   7655   2.766   1.219   1.491
 2360CH4    C   7656   2.425   2.091   1.774
 2360CH4    H   7657   2.438   2.199   1.740
 2360CH4    H   7658   2.356   2.047   1.702
 2360CH4    H   7659   2.515   2.035   1.776
 2360CH4    H   7660   2.381   2.090   1.876
 2361CH4    C   7661   2.639   1.817   1.211
 2361CH4    H   7662   2.725   1.780   1.157
 2361CH4    H   7663   2.673   1.890   1.279
 2361CH4    H   7664   2.559   1.849   1.145
 2361CH4    H   7665   2.596   1.729   1.264
 2362CH4    C   7666   3.028   1.770   1.783
 2362CH4    H   7667   3.000   1.691   1.720
 2362CH4    H   7668   3.133   1.815   1.757
 2362CH4    H   7669   2.955   1.852   1.769
 2362CH4    H   7670   3.040   1.735   1.891
 2363CH4    C   7671   3.333   1.793   1.132
 2363CH4    H   7672   3.303   1.896   1.135
 2363CH4    H   7673   3.246   1.737   1.091
 2363CH4    H   7674   3.411   1.772   1.061
 2363CH4    H   7675   3.370   1.764   1.234
 2364CH4    C   7676   2.359   1.527   1.825
 2364CH4    H   7677   2.323   1.631   1.803
 2364CH4    H   7678   2.454   1.514   1.774
 2364CH4    H   7679   2.366   1.514   1.937
 2364CH4    H   7680   2.287   1.450   1.790
 2365CH4    C   7681   2.393   1.200   1.190
 2365CH4    H   7682   2.335   1.265   1.258
 2365CH4    H   7683   2.383   1.098   1.223
 2365CH4    H   7684   2.361   1.226   1.088
 2365CH4    H   7685   2.500   1.223   1.203
 2366CH4    C   7686   3.001   1.213   2.106
 2366CH4    H   7687   3.018   1.110   2.133
 2366CH4    H   7688   3.101   1.254   2.094
 2366CH4    H   7689   2.957   1.205   2.004
 2366CH4    H   7690   2.937   1.267   2.182
 2367CH4    C   7691   2.943   1.155   2.729
 2367CH4    H   7692   2.908   1.054   2.759
 2367CH4    H   7693   2.962   1.155   2.617
 2367CH4    H   7694   2.866   1.233   2.754
 2367CH4    H   7695   3.031   1.190   2.778
 2368CH4    C   7696   2.409   2.101   2.985
 2368CH4    H   7697   2.419   2.201   2.955
 2368CH4    H   7698   2.500   2.073   3.045
 2368CH4    H   7699   2.321   2.087   3.040
 2368CH4    H   7700   2.396   2.024   2.905
 2369CH4    C   7701   2.675   1.809   2.378
 2369CH4    H   7702   2.580   1.824   2.438
 2369CH4    H   7703   2.758   1.864   2.426
 2369CH4    H   7704   2.694   1.705   2.367
 2369CH4    H   7705   2.659   1.846   2.276
 2370CH4    C   7706   2.995   1.782   2.954
 2370CH4    H   7707   2.911   1.808   2.887
 2370CH4    H   7708   2.990   1.813   3.056
 2370CH4    H   7709   3.017   1.671   2.962
 2370CH4    H   7710   3.081   1.833   2.911
 2371CH4    C   7711   3.260   1.818   2.335
 2371CH4    H   7712   3.364   1.783   2.366
 2371CH4    H   7713   3.238   1.905   2.386
 2371CH4    H   7714   3.261   1.845   2.228
 2371CH4    H   7715   3.201   1.726   2.357
 2372CH4    C   7716   2.412   1.449   2.963
 2372CH4    H   7717   2.304   1.459   2.952
 2372CH4    H   7718   2.446   1.350   2.994
 2372CH4    H   7719   2.451   1.459   2.863
 2372CH4    H   7720   2.451   1.522   3.034
 2373CH4    C   7721   2.361   1.178   2.392
 2373CH4    H   7722   2.426   1.181   2.483
 2373CH4    H   7723   2.253   1.179   2.417
 2373CH4    H   7724   2.374   1.257   2.321
 2373CH4    H   7725   2.376   1.078   2.347
 2374CH4    C   7726   3.041   1.163   3.264
 2374CH4    H   7727   3.015   1.168   3.162
 2374CH4    H   7728   2.966   1.098   3.311
 2374CH4    H   7729   3.138   1.111   3.270
 2374CH4    H   7730   3.057   1.266   3.312
 2375CH4    C   7731   3.045   1.188   3.812
 2375CH4    H   7732   2.965   1.133   3.870
 2375CH4    H   7733   3.029   1.296   3.799
 2375CH4    H   7734   3.135   1.170   3.870
 2375CH4    H   7735   3.067   1.143   3.709
 2376CH4    C   7736   2.441   2.055   4.130
 2376CH4    H   7737   2.407   2.124   4.208
 2376CH4    H   7738   2.436   1.953   4.177
 2376CH4    H   7739   2.375   2.071   4.037
 2376CH4    H   7740   2.547   2.070   4.105
 2377CH4    C   7741   2.689   1.754   3.559
 2377CH4    H   7742   2.618   1.701   3.492
 2377CH4    H   7743   2.643   1.763   3.665
 2377CH4    H   7744   2.788   1.700   3.563
 2377CH4    H   7745   2.709   1.854   3.520
 2378CH4    C   7746   3.003   1.779   4.127
 2378CH4    H   7747   2.981   1.886   4.110
 2378CH4    H   7748   3.075   1.745   4.057
 2378CH4    H   7749   3.044   1.762   4.231
 2378CH4    H   7750   2.908   1.728   4.117
 2379CH4    C   7751   3.353   1.770   3.598
 2379CH4    H   7752   3.295   1.684   3.625
 2379CH4    H   7753   3.291   1.852   3.572
 2379CH4    H   7754   3.408   1.791   3.690
 2379CH4    H   7755   3.419   1.750   3.514
 2380CH4    C   7756   2.411   1.460   4.166
 2380CH4    H   7757   2.500   1.409   4.126
 2380CH4    H   7758   2.364   1.386   4.236
 2380CH4    H   7759   2.425   1.566   4.201
 2380CH4    H   7760   2.347   1.474   4.077
 2381CH4    C   7761   2.397   1.208   3.547
 2381CH4    H   7762   2.296   1.194   3.511
 2381CH4    H   7763   2.458   1.120   3.579
 2381CH4    H   7764   2.455   1.261   3.468
 2381CH4    H   7765   2.385   1.269   3.635
 2382CH4    C   7766   2.976   1.229   4.469
 2382CH4    H   7767   2.890   1.161   4.488
 2382CH4    H   7768   3.057   1.194   4.528
 2382CH4    H   7769   3.004   1.222   4.361
 2382CH4    H   7770   2.947   1.333   4.493
 2383CH4    C   7771   2.965   1.135   5.075
 2383CH4    H   7772   2.888   1.192   5.036
 2383CH4    H   7773   2.960   1.044   5.019
 2383CH4    H   7774   3.057   1.185   5.038
 2383CH4    H   7775   2.947   1.135   5.186
 2384CH4    C   7776   2.412   2.109   5.346
 2384CH4    H   7777   2.416   2.025   5.283
 2384CH4    H   7778   2.329   2.105   5.417
 2384CH4    H   7779   2.503   2.119   5.398
 2384CH4    H   7780   2.411   2.204   5.294
 2385CH4    C   7781   2.687   1.807   4.807
 2385CH4    H   7782   2.789   1.788   4.772
 2385CH4    H   7783   2.659   1.910   4.790
 2385CH4    H   7784   2.618   1.732   4.758
 2385CH4    H   7785   2.683   1.793   4.918
 2386CH4    C   7786   2.971   1.795   5.377
 2386CH4    H   7787   2.974   1.902   5.362
 2386CH4    H   7788   2.870   1.765   5.400
 2386CH4    H   7789   3.016   1.740   5.289
 2386CH4    H   7790   3.035   1.771   5.466
 2387CH4    C   7791   3.286   1.757   4.740
 2387CH4    H   7792   3.243   1.763   4.840
 2387CH4    H   7793   3.358   1.833   4.707
 2387CH4    H   7794   3.324   1.654   4.722
 2387CH4    H   7795   3.211   1.760   4.660
 2388CH4    C   7796   2.359   1.505   5.387
 2388CH4    H   7797   2.451   1.450   5.374
 2388CH4    H   7798   2.374   1.616   5.383
 2388CH4    H   7799   2.287   1.465   5.311
 2388CH4    H   7800   2.309   1.473   5.485
 2389CH4    C   7801   2.353   1.172   4.770
 2389CH4    H   7802   2.297   1.257   4.725
 2389CH4    H   7803   2.310   1.081   4.736
 2389CH4    H   7804   2.462   1.183   4.750
 2389CH4    H   7805   2.341   1.170   4.879
 2390CH4    C   7806   2.954   1.166   5.662
 2390CH4    H   7807   2.941   1.058   5.673
 2390CH4    H   7808   3.049   1.200   5.701
 2390CH4    H   7809   2.947   1.197   5.556
 2390CH4    H   7810   2.873   1.215   5.720
 2391CH4    C   7811   2.913   2.355   0.257
 2391CH4    H   7812   2.970   2.373   0.162
 2391CH4    H   7813   2.983   2.305   0.327
 2391CH4    H   7814   2.879   2.453   0.305
 2391CH4    H   7815   2.832   2.284   0.240
 2392CH4    C   7816   2.382   3.317   0.603
 2392CH4    H   7817   2.455   3.236   0.578
 2392CH4    H   7818   2.282   3.267   0.610
 2392CH4    H   7819   2.422   3.353   0.699
 2392CH4    H   7820   2.381   3.385   0.525
 2393CH4    C   7821   2.653   2.975   0.002
 2393CH4    H   7822   2.562   2.920   0.034
 2393CH4    H   7823   2.662   2.976  -0.111
 2393CH4    H   7824   2.650   3.076   0.044
 2393CH4    H   7825   2.740   2.925   0.048
 2394CH4    C   7826   2.973   3.026   0.589
 2394CH4    H   7827   3.057   2.968   0.542
 2394CH4    H   7828   2.987   3.040   0.697
 2394CH4    H   7829   2.967   3.126   0.538
 2394CH4    H   7830   2.876   2.975   0.585
 2395CH4    C   7831   3.294   2.917   5.978
 2395CH4    H   7832   3.189   2.943   6.002
 2395CH4    H   7833   3.318   2.810   5.990
 2395CH4    H   7834   3.328   2.959   5.885
 2395CH4    H   7835   3.350   2.966   6.058
 2396CH4    C   7836   2.406   2.717   0.577
 2396CH4    H   7837   2.434   2.755   0.674
 2396CH4    H   7838   2.307   2.674   0.595
 2396CH4    H   7839   2.401   2.787   0.496
 2396CH4    H   7840   2.463   2.625   0.550
 2397CH4    C   7841   2.405   2.394   5.977
 2397CH4    H   7842   2.336   2.454   6.046
 2397CH4    H   7843   2.417   2.435   5.873
 2397CH4    H   7844   2.505   2.394   6.014
 2397CH4    H   7845   2.356   2.297   5.977
 2398CH4    C   7846   3.021   2.375   0.889
 2398CH4    H   7847   2.917   2.361   0.916
 2398CH4    H   7848   3.032   2.477   0.847
 2398CH4    H   7849   3.080   2.363   0.977
 2398CH4    H   7850   3.043   2.302   0.816
 2399CH4    C   7851   3.030   2.342   1.475
 2399CH4    H   7852   3.031   2.434   1.533
 2399CH4    H   7853   3.017   2.357   1.362
 2399CH4    H   7854   3.111   2.270   1.498
 2399CH4    H   7855   2.939   2.285   1.502
 2400CH4    C   7856   2.351   3.296   1.822
 2400CH4    H   7857   2.305   3.229   1.895
 2400CH4    H   7858   2.292   3.294   1.728
 2400CH4    H   7859   2.341   3.401   1.849
 2400CH4    H   7860   2.459   3.268   1.808
 2401CH4    C   7861   2.698   3.002   1.202
 2401CH4    H   7862   2.645   3.070   1.273
 2401CH4    H   7863   2.701   3.052   1.111
 2401CH4    H   7864   2.796   2.979   1.237
 2401CH4    H   7865   2.634   2.918   1.205
 2402CH4    C   7866   2.987   2.993   1.794
 2402CH4    H   7867   2.883   2.961   1.798
 2402CH4    H   7868   3.048   2.922   1.744
 2402CH4    H   7869   3.003   3.092   1.764
 2402CH4    H   7870   3.030   2.989   1.892
 2403CH4    C   7871   3.265   2.912   1.142
 2403CH4    H   7872   3.196   2.951   1.217
 2403CH4    H   7873   3.255   2.980   1.062
 2403CH4    H   7874   3.371   2.908   1.173
 2403CH4    H   7875   3.228   2.816   1.109
 2404CH4    C   7876   2.371   2.694   1.693
 2404CH4    H   7877   2.450   2.674   1.762
 2404CH4    H   7878   2.413   2.665   1.593
 2404CH4    H   7879   2.282   2.638   1.718
 2404CH4    H   7880   2.355   2.797   1.705
 2405CH4    C   7881   2.371   2.417   1.213
 2405CH4    H   7882   2.279   2.347   1.233
 2405CH4    H   7883   2.332   2.521   1.193
 2405CH4    H   7884   2.429   2.418   1.305
 2405CH4    H   7885   2.433   2.383   1.131
 2406CH4    C   7886   2.981   2.330   2.076
 2406CH4    H   7887   2.965   2.303   2.183
 2406CH4    H   7888   3.048   2.411   2.067
 2406CH4    H   7889   3.000   2.250   2.004
 2406CH4    H   7890   2.887   2.374   2.048
 2407CH4    C   7891   2.976   2.422   2.698
 2407CH4    H   7892   2.879   2.392   2.651
 2407CH4    H   7893   2.968   2.410   2.806
 2407CH4    H   7894   3.055   2.362   2.653
 2407CH4    H   7895   2.987   2.523   2.674
 2408CH4    C   7896   2.391   3.287   2.981
 2408CH4    H   7897   2.456   3.369   3.009
 2408CH4    H   7898   2.298   3.342   2.971
 2408CH4    H   7899   2.426   3.239   2.887
 2408CH4    H   7900   2.385   3.215   3.061
 2409CH4    C   7901   2.739   2.967   2.430
 2409CH4    H   7902   2.649   2.969   2.369
 2409CH4    H   7903   2.774   3.070   2.448
 2409CH4    H   7904   2.714   2.929   2.534
 2409CH4    H   7905   2.821   2.909   2.384
 2410CH4    C   7906   2.967   3.034   2.979
 2410CH4    H   7907   2.973   2.977   2.885
 2410CH4    H   7908   3.066   3.036   3.037
 2410CH4    H   7909   2.934   3.139   2.950
 2410CH4    H   7910   2.884   2.991   3.038
 2411CH4    C   7911   3.304   2.891   2.323
 2411CH4    H   7912   3.312   2.787   2.286
 2411CH4    H   7913   3.402   2.922   2.373
 2411CH4    H   7914   3.288   2.955   2.232
 2411CH4    H   7915   3.227   2.900   2.398
 2412CH4    C   7916   2.352   2.646   3.066
 2412CH4    H   7917   2.432   2.636   2.998
 2412CH4    H   7918   2.281   2.575   3.034
 2412CH4    H   7919   2.382   2.627   3.172
 2412CH4    H   7920   2.301   2.741   3.053
 2413CH4    C   7921   2.399   2.381   2.393
 2413CH4    H   7922   2.498   2.424   2.402
 2413CH4    H   7923   2.395   2.303   2.463
 2413CH4    H   7924   2.322   2.440   2.444
 2413CH4    H   7925   2.382   2.347   2.297
 2414CH4    C   7926   2.906   2.384   3.260
 2414CH4    H   7927   3.006   2.352   3.224
 2414CH4    H   7928   2.873   2.465   3.197
 2414CH4    H   7929   2.841   2.300   3.232
 2414CH4    H   7930   2.903   2.410   3.369
 2415CH4    C   7931   3.030   2.318   3.870
 2415CH4    H   7932   3.024   2.391   3.954
 2415CH4    H   7933   2.941   2.256   3.867
 2415CH4    H   7934   3.052   2.355   3.772
 2415CH4    H   7935   3.118   2.259   3.902
 2416CH4    C   7936   2.403   3.275   4.129
 2416CH4    H   7937   2.468   3.232   4.201
 2416CH4    H   7938   2.418   3.382   4.112
 2416CH4    H   7939   2.407   3.218   4.033
 2416CH4    H   7940   2.297   3.255   4.171
 2417CH4    C   7941   2.662   2.932   3.498
 2417CH4    H   7942   2.735   2.909   3.420
 2417CH4    H   7943   2.710   2.997   3.565
 2417CH4    H   7944   2.581   2.989   3.453
 2417CH4    H   7945   2.627   2.844   3.551
 2418CH4    C   7946   2.996   2.994   4.198
 2418CH4    H   7947   3.093   2.969   4.153
 2418CH4    H   7948   2.908   2.940   4.164
 2418CH4    H   7949   2.999   2.970   4.308
 2418CH4    H   7950   2.977   3.104   4.191
 2419CH4    C   7951   3.272   3.010   3.613
 2419CH4    H   7952   3.270   2.896   3.591
 2419CH4    H   7953   3.199   3.028   3.691
 2419CH4    H   7954   3.376   3.035   3.642
 2419CH4    H   7955   3.249   3.070   3.528
 2420CH4    C   7956   2.294   2.670   4.096
 2420CH4    H   7957   2.358   2.723   4.179
 2420CH4    H   7958   2.331   2.567   4.073
 2420CH4    H   7959   2.192   2.678   4.135
 2420CH4    H   7960   2.303   2.734   4.005
 2421CH4    C   7961   2.377   2.344   3.559
 2421CH4    H   7962   2.438   2.426   3.603
 2421CH4    H   7963   2.270   2.381   3.549
 2421CH4    H   7964   2.405   2.322   3.458
 2421CH4    H   7965   2.384   2.254   3.622
 2422CH4    C   7966   2.992   2.429   4.497
 2422CH4    H   7967   3.012   2.536   4.481
 2422CH4    H   7968   2.952   2.380   4.407
 2422CH4    H   7969   3.071   2.376   4.547
 2422CH4    H   7970   2.919   2.423   4.576
 2423CH4    C   7971   3.042   2.422   5.145
 2423CH4    H   7972   2.999   2.499   5.210
 2423CH4    H   7973   2.993   2.332   5.172
 2423CH4    H   7974   3.012   2.440   5.036
 2423CH4    H   7975   3.153   2.411   5.143
 2424CH4    C   7976   2.405   3.332   5.409
 2424CH4    H   7977   2.461   3.338   5.317
 2424CH4    H   7978   2.468   3.368   5.490
 2424CH4    H   7979   2.313   3.391   5.406
 2424CH4    H   7980   2.387   3.225   5.421
 2425CH4    C   7981   2.698   2.987   4.788
 2425CH4    H   7982   2.650   2.889   4.801
 2425CH4    H   7983   2.625   3.054   4.837
 2425CH4    H   7984   2.785   2.992   4.846
 2425CH4    H   7985   2.698   3.008   4.679
 2426CH4    C   7986   2.995   2.978   5.440
 2426CH4    H   7987   2.914   3.043   5.436
 2426CH4    H   7988   2.959   2.871   5.435
 2426CH4    H   7989   3.070   2.982   5.358
 2426CH4    H   7990   3.037   2.991   5.538
 2427CH4    C   7991   3.294   3.033   4.764
 2427CH4    H   7992   3.201   2.989   4.806
 2427CH4    H   7993   3.386   2.975   4.803
 2427CH4    H   7994   3.289   3.038   4.651
 2427CH4    H   7995   3.298   3.133   4.798
 2428CH4    C   7996   2.352   2.696   5.302
 2428CH4    H   7997   2.296   2.713   5.392
 2428CH4    H   7998   2.285   2.718   5.218
 2428CH4    H   7999   2.435   2.769   5.310
 2428CH4    H   8000   2.381   2.590   5.289
 2429CH4    C   8001   2.376   2.384   4.780
 2429CH4    H   8002   2.410   2.356   4.881
 2429CH4    H   8003   2.272   2.411   4.791
 2429CH4    H   8004   2.435   2.472   4.755
 2429CH4    H   8005   2.402   2.320   4.696
 2430CH4    C   8006   3.024   2.397   5.718
 2430CH4    H   8007   3.118   2.350   5.683
 2430CH4    H   8008   2.969   2.334   5.787
 2430CH4    H   8009   3.050   2.490   5.773
 2430CH4    H   8010   2.969   2.419   5.628
   3.60261   3.60261   6.00436   0.00000   0.00000   0.00000   0.00000   0.00000   0.00000
