integrator              = md
nsteps                  = 0
dt                      = 0.0005
continuation            = no
constraints             = h-bonds
cutoff-scheme           = Verlet
nstlist                 = 20
rlist                   = 1.2
coulombtype             = PME
rcoulomb                = 1.2
vdwtype                 = Cut-off
rvdw                    = 1.2
pbc                     = xyz
periodic-molecules      = yes
nstcalcenergy           = 1
nstenergy               = 1
nstlog                  = 1
nstxout                 = 0
nstvout                 = 0
nstfout                 = 1
nstxout-compressed      = 0
tcoupl                  = no
pcoupl                  = no
gen-vel                 = no
nnpot-active            = yes
nnpot-modelfile         = nep.txt
nnpot-input-group       = NEP
nnpot-embedding         = mechanical
